 Fermi distribution function

Calculation with static geometry


********************************************************************************
 iSCC Total electronic   Diff electronic      SCC error    
    6   -0.13449949E+02   -0.78253848E-08    0.37328804E-04
********************************************************************************

 Total charge:    -0.00000000

 Atomic gross charges (e)
 Atom           Charge
    1       0.28409843
    2       0.06007002
    3      -0.36156996
    4       0.09763088
    5       0.41135075
    6       0.00089258
    7      -0.48966138
    8      -0.40498647
    9       0.40217515

Nr. of electrons (up):     28.00000000
Atom populations (up)
 Atom       Population
    1       3.71590157
    2       0.93992998
    3       4.36156996
    4       0.90236912
    5       3.58864925
    6       0.99910742
    7       6.48966138
    8       6.40498647
    9       0.59782485

l-shell populations (up)
 Atom Sh.   l       Population
    1   1   0       1.14129600
    1   2   1       2.57460557
    2   1   0       0.93992998
    3   1   0       1.22253170
    3   2   1       3.13903826
    4   1   0       0.90236912
    5   1   0       1.13678835
    5   2   1       2.45186090
    6   1   0       0.99910742
    7   1   0       1.75665825
    7   2   1       4.73300313
    8   1   0       1.73505845
    8   2   1       4.66992802
    9   1   0       0.59782485

Orbital populations (up)
 Atom Sh.   l   m       Population  Label
    1   1   0   0       1.14129600  s
    1   2   1  -1       0.83343523  p_y
    1   2   1   0       0.88850790  p_z
    1   2   1   1       0.85266245  p_x
    2   1   0   0       0.93992998  s
    3   1   0   0       1.22253170  s
    3   2   1  -1       0.99090030  p_y
    3   2   1   0       1.02329685  p_z
    3   2   1   1       1.12484111  p_x
    4   1   0   0       0.90236912  s
    5   1   0   0       1.13678835  s
    5   2   1  -1       0.79116121  p_y
    5   2   1   0       0.88359810  p_z
    5   2   1   1       0.77710160  p_x
    6   1   0   0       0.99910742  s
    7   1   0   0       1.75665825  s
    7   2   1  -1       1.49765756  p_y
    7   2   1   0       1.77447092  p_z
    7   2   1   1       1.46087465  p_x
    8   1   0   0       1.73505845  s
    8   2   1  -1       1.27375587  p_y
    8   2   1   0       1.67511056  p_z
    8   2   1   1       1.72106159  p_x
    9   1   0   0       0.59782485  s

Fermi level:                        -0.1597436838 H           -4.3468 eV
Band energy:                       -13.2851516713 H         -361.5074 eV
TS:                                  0.0000000000 H            0.0000 eV
Band free energy (E-TS):           -13.2851516713 H         -361.5074 eV
Extrapolated E(0K):                -13.2851516713 H         -361.5074 eV
Input / Output electrons (q):     28.0000000000     28.0000000000

Energy H0:                         -13.4690393995 H         -366.5112 eV
Energy SCC:                          0.0209553638 H            0.5702 eV
Energy 3rd:                         -0.0018651499 H           -0.0508 eV
Total Electronic energy:           -13.4499491856 H         -365.9917 eV
Repulsive energy:                    0.2167202547 H            5.8973 eV
Dispersion energy:                  -0.0037151470 H           -0.1011 eV
Total energy:                      -13.2369440779 H         -360.1956 eV
Extrapolated to 0:                 -13.2369440779 H         -360.1956 eV
Total Mermin free energy:          -13.2369440779 H         -360.1956 eV
Force related energy:              -13.2369440779 H         -360.1956 eV

SCC converged

Total Forces
    1      0.024545362810      0.018593391244     -0.057037038348
    2      0.002497987983      0.004456890373     -0.008438247629
    3     -0.039175669341      0.031379529633      0.037523164721
    4      0.004944583597     -0.003776618495      0.006847396057
    5     -0.017398895797      0.013684675937      0.028036321193
    6      0.002356891260     -0.010622653954     -0.004179976845
    7      0.007534090349     -0.024813364596     -0.002741392620
    8      0.006865368614     -0.022797208516      0.006102313581
    9      0.007830280525     -0.006104641625     -0.006112540112

Total stress tensor
      0.000000010377     -0.000000004925     -0.000000014959
     -0.000000004925      0.000000023818     -0.000000003479
     -0.000000014959     -0.000000003479      0.000000024846

Total lattice derivs
     -0.000370581139      0.000175864319      0.000534205057
      0.000175864238     -0.000850563969      0.000124242619
      0.000534204306      0.000124242358     -0.000887253098

Maximal derivative component:        0.570370E-01 au

Volume:                              0.674833E+07 au^3
Pressure:                            0.196804E-07 au     0.579017E+06 Pa

Warning: dipole moment is not defined absolutely!
Dipole moment:   -0.23743064    0.90003411   -0.13164048 au
Dipole moment:   -0.60348853    2.28765871   -0.33459675 Debye


