 Fermi distribution function

Calculation with static geometry


********************************************************************************
 iSCC Total electronic   Diff electronic      SCC error    
    6   -0.13457751E+02   -0.16107178E-07    0.68156959E-04
********************************************************************************

 Total charge:    -0.00000000

 Atomic gross charges (e)
 Atom           Charge
    1       0.27829745
    2       0.07509251
    3      -0.34075360
    4       0.09169868
    5       0.40259450
    6       0.00778757
    7      -0.50068975
    8      -0.41487604
    9       0.40084869

Nr. of electrons (up):     28.00000000
Atom populations (up)
 Atom       Population
    1       3.72170255
    2       0.92490749
    3       4.34075360
    4       0.90830132
    5       3.59740550
    6       0.99221243
    7       6.50068975
    8       6.41487604
    9       0.59915131

l-shell populations (up)
 Atom Sh.   l       Population
    1   1   0       1.12806959
    1   2   1       2.59363296
    2   1   0       0.92490749
    3   1   0       1.20663097
    3   2   1       3.13412263
    4   1   0       0.90830132
    5   1   0       1.13956760
    5   2   1       2.45783789
    6   1   0       0.99221243
    7   1   0       1.76435712
    7   2   1       4.73633263
    8   1   0       1.74529062
    8   2   1       4.66958542
    9   1   0       0.59915131

Orbital populations (up)
 Atom Sh.   l   m       Population  Label
    1   1   0   0       1.12806959  s
    1   2   1  -1       0.84654873  p_y
    1   2   1   0       0.89266137  p_z
    1   2   1   1       0.85442286  p_x
    2   1   0   0       0.92490749  s
    3   1   0   0       1.20663097  s
    3   2   1  -1       0.99202644  p_y
    3   2   1   0       1.01543312  p_z
    3   2   1   1       1.12666307  p_x
    4   1   0   0       0.90830132  s
    5   1   0   0       1.13956760  s
    5   2   1  -1       0.79088598  p_y
    5   2   1   0       0.88801361  p_z
    5   2   1   1       0.77893830  p_x
    6   1   0   0       0.99221243  s
    7   1   0   0       1.76435712  s
    7   2   1  -1       1.49188052  p_y
    7   2   1   0       1.77826936  p_z
    7   2   1   1       1.46618276  p_x
    8   1   0   0       1.74529062  s
    8   2   1  -1       1.29552091  p_y
    8   2   1   0       1.66756400  p_z
    8   2   1   1       1.70650051  p_x
    9   1   0   0       0.59915131  s

Fermi level:                        -0.1624929751 H           -4.4217 eV
Band energy:                       -13.2860149630 H         -361.5309 eV
TS:                                  0.0000000000 H            0.0000 eV
Band free energy (E-TS):           -13.2860149630 H         -361.5309 eV
Extrapolated E(0K):                -13.2860149630 H         -361.5309 eV
Input / Output electrons (q):     28.0000000000     28.0000000000

Energy H0:                         -13.4788017373 H         -366.7769 eV
Energy SCC:                          0.0231381345 H            0.6296 eV
Energy 3rd:                         -0.0020873130 H           -0.0568 eV
Total Electronic energy:           -13.4577509158 H         -366.2040 eV
Repulsive energy:                    0.2381323523 H            6.4799 eV
Dispersion energy:                  -0.0037303699 H           -0.1015 eV
Total energy:                      -13.2233489334 H         -359.8256 eV
Extrapolated to 0:                 -13.2233489334 H         -359.8256 eV
Total Mermin free energy:          -13.2233489334 H         -359.8256 eV
Force related energy:              -13.2233489334 H         -359.8256 eV

SCC converged

Total Forces
    1      0.044766380231     -0.020198439276     -0.067141051937
    2      0.009547972140      0.050495923323     -0.035403766881
    3     -0.062164617449      0.044825167860      0.061162182573
    4      0.002191018562      0.005104444428      0.007055295473
    5     -0.007603556992     -0.024618582834      0.038539509292
    6      0.002125177189     -0.008873606239     -0.007369062518
    7     -0.000688813675     -0.007278020481     -0.002392383128
    8     -0.006169966265     -0.044461989314      0.026743862499
    9      0.017996406260      0.005005102533     -0.021194585373

Total stress tensor
      0.000000013233     -0.000000003424     -0.000000020172
     -0.000000003424      0.000000038063     -0.000000010335
     -0.000000020172     -0.000000010335      0.000000035229

Total lattice derivs
     -0.000472570791      0.000122276739      0.000720360154
      0.000122277584     -0.001359265218      0.000369084477
      0.000720360402      0.000369083815     -0.001258066373

Maximal derivative component:        0.671411E-01 au

Volume:                              0.674833E+07 au^3
Pressure:                            0.288420E-07 au     0.848562E+06 Pa

Warning: dipole moment is not defined absolutely!
Dipole moment:   -0.31162468    0.98826480   -0.10658685 au
Dipole moment:   -0.79207098    2.51191876   -0.27091676 Debye


