 Fermi distribution function

Calculation with static geometry


********************************************************************************
 iSCC Total electronic   Diff electronic      SCC error    
    7   -0.13427567E+02   -0.23836559E-08    0.85952668E-05
********************************************************************************

 Total charge:    -0.00000000

 Atomic gross charges (e)
 Atom           Charge
    1       0.29217530
    2       0.05626196
    3      -0.36385281
    4       0.09726555
    5       0.41347613
    6       0.00660277
    7      -0.53161632
    8      -0.37774388
    9       0.40743131

Nr. of electrons (up):     28.00000000
Atom populations (up)
 Atom       Population
    1       3.70782470
    2       0.94373804
    3       4.36385281
    4       0.90273445
    5       3.58652387
    6       0.99339723
    7       6.53161632
    8       6.37774388
    9       0.59256869

l-shell populations (up)
 Atom Sh.   l       Population
    1   1   0       1.16035226
    1   2   1       2.54747244
    2   1   0       0.94373804
    3   1   0       1.22817579
    3   2   1       3.13567702
    4   1   0       0.90273445
    5   1   0       1.13810675
    5   2   1       2.44841712
    6   1   0       0.99339723
    7   1   0       1.76739493
    7   2   1       4.76422139
    8   1   0       1.72323317
    8   2   1       4.65451071
    9   1   0       0.59256869

Orbital populations (up)
 Atom Sh.   l   m       Population  Label
    1   1   0   0       1.16035226  s
    1   2   1  -1       0.79307575  p_y
    1   2   1   0       0.82706291  p_z
    1   2   1   1       0.92733379  p_x
    2   1   0   0       0.94373804  s
    3   1   0   0       1.22817579  s
    3   2   1  -1       0.98287127  p_y
    3   2   1   0       1.18902993  p_z
    3   2   1   1       0.96377582  p_x
    4   1   0   0       0.90273445  s
    5   1   0   0       1.13810675  s
    5   2   1  -1       0.78773535  p_y
    5   2   1   0       0.78416184  p_z
    5   2   1   1       0.87651994  p_x
    6   1   0   0       0.99339723  s
    7   1   0   0       1.76739493  s
    7   2   1  -1       1.43945757  p_y
    7   2   1   0       1.48683597  p_z
    7   2   1   1       1.83792784  p_x
    8   1   0   0       1.72323317  s
    8   2   1  -1       1.39284385  p_y
    8   2   1   0       1.67684893  p_z
    8   2   1   1       1.58481794  p_x
    9   1   0   0       0.59256869  s

Fermi level:                        -0.1602125099 H           -4.3596 eV
Band energy:                       -13.2126409154 H         -359.5343 eV
TS:                                  0.0000000000 H            0.0000 eV
Band free energy (E-TS):           -13.2126409154 H         -359.5343 eV
Extrapolated E(0K):                -13.2126409154 H         -359.5343 eV
Input / Output electrons (q):     28.0000000000     28.0000000000

Energy H0:                         -13.4489867448 H         -365.9655 eV
Energy SCC:                          0.0238626042 H            0.6493 eV
Energy 3rd:                         -0.0024429239 H           -0.0665 eV
Total Electronic energy:           -13.4275670645 H         -365.3827 eV
Repulsive energy:                    0.1901600392 H            5.1745 eV
Dispersion energy:                  -0.0036968102 H           -0.1006 eV
Total energy:                      -13.2411038355 H         -360.3088 eV
Extrapolated to 0:                 -13.2411038355 H         -360.3088 eV
Total Mermin free energy:          -13.2411038355 H         -360.3088 eV
Force related energy:              -13.2411038355 H         -360.3088 eV

SCC converged

Total Forces
    1      0.019065576464     -0.028241610553     -0.007038234081
    2     -0.014007538457      0.003419689748      0.001260863870
    3      0.041001526238     -0.028974309983      0.003095045519
    4     -0.002931857544      0.000163434082     -0.006940382721
    5     -0.035758612611      0.008541445053      0.002874265004
    6      0.005821209017      0.009458018826      0.003070273430
    7     -0.007374155663      0.006260021778     -0.004041194593
    8      0.013127357475      0.020819075722      0.009513508435
    9     -0.018943504918      0.008554235329     -0.001794144863

Total stress tensor
      0.000000012403     -0.000000011182     -0.000000000194
     -0.000000011182      0.000000015532      0.000000003094
     -0.000000000194      0.000000003094      0.000000001048

Total lattice derivs
     -0.000442923810      0.000399333634      0.000006917222
      0.000399333660     -0.000554655190     -0.000110488737
      0.000006917300     -0.000110488980     -0.000037440929

Maximal derivative component:        0.410015E-01 au

Volume:                              0.674833E+07 au^3
Pressure:                            0.966117E-08 au     0.284241E+06 Pa

Warning: dipole moment is not defined absolutely!
Dipole moment:    0.63341102   -0.76847143   -0.12448644 au
Dipole moment:    1.60997035   -1.95325970   -0.31641299 Debye


