 Fermi distribution function

Calculation with static geometry


********************************************************************************
 iSCC Total electronic   Diff electronic      SCC error    
    6   -0.13393906E+02   -0.58115450E-08    0.81783718E-04
********************************************************************************

 Total charge:    -0.00000000

 Atomic gross charges (e)
 Atom           Charge
    1       0.31500882
    2       0.04857536
    3      -0.37988133
    4       0.10555822
    5       0.38678997
    6       0.03997861
    7      -0.51989331
    8      -0.41038463
    9       0.41424830

Nr. of electrons (up):     28.00000000
Atom populations (up)
 Atom       Population
    1       3.68499118
    2       0.95142464
    3       4.37988133
    4       0.89444178
    5       3.61321003
    6       0.96002139
    7       6.51989331
    8       6.41038463
    9       0.58575170

l-shell populations (up)
 Atom Sh.   l       Population
    1   1   0       1.16513245
    1   2   1       2.51985874
    2   1   0       0.95142464
    3   1   0       1.23937827
    3   2   1       3.14050306
    4   1   0       0.89444178
    5   1   0       1.14694159
    5   2   1       2.46626844
    6   1   0       0.96002139
    7   1   0       1.77251920
    7   2   1       4.74737412
    8   1   0       1.74755213
    8   2   1       4.66283250
    9   1   0       0.58575170

Orbital populations (up)
 Atom Sh.   l   m       Population  Label
    1   1   0   0       1.16513245  s
    1   2   1  -1       0.88169427  p_y
    1   2   1   0       0.85386993  p_z
    1   2   1   1       0.78429454  p_x
    2   1   0   0       0.95142464  s
    3   1   0   0       1.23937827  s
    3   2   1  -1       1.05465276  p_y
    3   2   1   0       1.12772741  p_z
    3   2   1   1       0.95812290  p_x
    4   1   0   0       0.89444178  s
    5   1   0   0       1.14694159  s
    5   2   1  -1       0.85525940  p_y
    5   2   1   0       0.82315554  p_z
    5   2   1   1       0.78785350  p_x
    6   1   0   0       0.96002139  s
    7   1   0   0       1.77251920  s
    7   2   1  -1       1.68188831  p_y
    7   2   1   0       1.64259701  p_z
    7   2   1   1       1.42288880  p_x
    8   1   0   0       1.74755213  s
    8   2   1  -1       1.68710034  p_y
    8   2   1   0       1.64891997  p_z
    8   2   1   1       1.32681220  p_x
    9   1   0   0       0.58575170  s

Fermi level:                        -0.1671116638 H           -4.5473 eV
Band energy:                       -13.1826781828 H         -358.7189 eV
TS:                                  0.0000000000 H            0.0000 eV
Band free energy (E-TS):           -13.1826781828 H         -358.7189 eV
Extrapolated E(0K):                -13.1826781828 H         -358.7189 eV
Input / Output electrons (q):     28.0000000000     28.0000000000

Energy H0:                         -13.4145941529 H         -365.0297 eV
Energy SCC:                          0.0230283191 H            0.6266 eV
Energy 3rd:                         -0.0023397706 H           -0.0637 eV
Total Electronic energy:           -13.3939056044 H         -364.4667 eV
Repulsive energy:                    0.1580048575 H            4.2995 eV
Dispersion energy:                  -0.0037124745 H           -0.1010 eV
Total energy:                      -13.2396132215 H         -360.2682 eV
Extrapolated to 0:                 -13.2396132215 H         -360.2682 eV
Total Mermin free energy:          -13.2396132215 H         -360.2682 eV
Force related energy:              -13.2396132215 H         -360.2682 eV

SCC converged

Total Forces
    1      0.018291007797      0.018022596711     -0.022059640097
    2     -0.017702562572     -0.009435400724      0.008832975004
    3      0.004504294706      0.019280406339      0.001799966338
    4      0.003674559282     -0.007515817773      0.000453501642
    5     -0.025740046618     -0.002331386857     -0.014933949018
    6      0.005914565493     -0.017436876237      0.018699645148
    7      0.012968158153      0.002686942994      0.004428198916
    8     -0.004959301974     -0.012966406502      0.014224831341
    9      0.003049325733      0.009695942049     -0.011445529274

Total stress tensor
     -0.000000003853     -0.000000004156      0.000000002879
     -0.000000004156      0.000000005082     -0.000000004582
      0.000000002879     -0.000000004582      0.000000003165

Total lattice derivs
      0.000137594583      0.000148414177     -0.000102794001
      0.000148414207     -0.000181495468      0.000163631637
     -0.000102794297      0.000163631415     -0.000113038763

Maximal derivative component:        0.257400E-01 au

Volume:                              0.674833E+07 au^3
Pressure:                            0.146492E-08 au     0.430994E+05 Pa

Warning: dipole moment is not defined absolutely!
Dipole moment:    0.96973824    0.23668684   -0.02956948 au
Dipole moment:    2.46482895    0.60159800   -0.07515814 Debye


