 Fermi distribution function

Calculation with static geometry


********************************************************************************
 iSCC Total electronic   Diff electronic      SCC error    
    6   -0.13461282E+02   -0.20510296E-08    0.25668497E-04
********************************************************************************

 Total charge:    -0.00000000

 Atomic gross charges (e)
 Atom           Charge
    1       0.27477060
    2       0.07611406
    3      -0.35129827
    4       0.09368826
    5       0.41153013
    6      -0.00412132
    7      -0.48516388
    8      -0.41493785
    9       0.39941826

Nr. of electrons (up):     28.00000000
Atom populations (up)
 Atom       Population
    1       3.72522940
    2       0.92388594
    3       4.35129827
    4       0.90631174
    5       3.58846987
    6       1.00412132
    7       6.48516388
    8       6.41493785
    9       0.60058174

l-shell populations (up)
 Atom Sh.   l       Population
    1   1   0       1.13046617
    1   2   1       2.59476323
    2   1   0       0.92388594
    3   1   0       1.21639678
    3   2   1       3.13490149
    4   1   0       0.90631174
    5   1   0       1.13927590
    5   2   1       2.44919397
    6   1   0       1.00412132
    7   1   0       1.75674465
    7   2   1       4.72841923
    8   1   0       1.73993122
    8   2   1       4.67500663
    9   1   0       0.60058174

Orbital populations (up)
 Atom Sh.   l   m       Population  Label
    1   1   0   0       1.13046617  s
    1   2   1  -1       0.84246474  p_y
    1   2   1   0       0.89486038  p_z
    1   2   1   1       0.85743812  p_x
    2   1   0   0       0.92388594  s
    3   1   0   0       1.21639678  s
    3   2   1  -1       0.99007962  p_y
    3   2   1   0       1.02007494  p_z
    3   2   1   1       1.12474693  p_x
    4   1   0   0       0.90631174  s
    5   1   0   0       1.13927590  s
    5   2   1  -1       0.79122778  p_y
    5   2   1   0       0.88345497  p_z
    5   2   1   1       0.77451122  p_x
    6   1   0   0       1.00412132  s
    7   1   0   0       1.75674465  s
    7   2   1  -1       1.49613660  p_y
    7   2   1   0       1.77636300  p_z
    7   2   1   1       1.45591963  p_x
    8   1   0   0       1.73993122  s
    8   2   1  -1       1.27961431  p_y
    8   2   1   0       1.67519325  p_z
    8   2   1   1       1.72019907  p_x
    9   1   0   0       0.60058174  s

Fermi level:                        -0.1599167581 H           -4.3516 eV
Band energy:                       -13.2914177534 H         -361.6779 eV
TS:                                  0.0000000000 H            0.0000 eV
Band free energy (E-TS):           -13.2914177534 H         -361.6779 eV
Extrapolated E(0K):                -13.2914177534 H         -361.6779 eV
Input / Output electrons (q):     28.0000000000     28.0000000000

Energy H0:                         -13.4807103221 H         -366.8288 eV
Energy SCC:                          0.0213273395 H            0.5803 eV
Energy 3rd:                         -0.0018991814 H           -0.0517 eV
Total Electronic energy:           -13.4612821640 H         -366.3001 eV
Repulsive energy:                    0.2363033132 H            6.4301 eV
Dispersion energy:                  -0.0037234602 H           -0.1013 eV
Total energy:                      -13.2287023110 H         -359.9713 eV
Extrapolated to 0:                 -13.2287023110 H         -359.9713 eV
Total Mermin free energy:          -13.2287023110 H         -359.9713 eV
Force related energy:              -13.2287023110 H         -359.9713 eV

SCC converged

Total Forces
    1      0.031474765787     -0.020041269799     -0.053634574618
    2      0.009438692367      0.046569637941     -0.034315389715
    3     -0.056730382910      0.037850589691      0.059626488720
    4      0.006660306286     -0.003814171189      0.006041135335
    5     -0.017421796594      0.007963880440      0.039129027687
    6      0.004501898804     -0.009523926665     -0.012860989969
    7      0.006870650211     -0.024029688296     -0.005015483143
    8      0.001935828907     -0.037151308814      0.016364753188
    9      0.013270037142      0.002176256691     -0.015334967486

Total stress tensor
      0.000000012160     -0.000000004489     -0.000000018263
     -0.000000004489      0.000000034775     -0.000000007628
     -0.000000018263     -0.000000007628      0.000000031027

Total lattice derivs
     -0.000434236338      0.000160290965      0.000652189147
      0.000160291303     -0.001241833891      0.000272406493
      0.000652188347      0.000272406453     -0.001107986019

Maximal derivative component:        0.596265E-01 au

Volume:                              0.674833E+07 au^3
Pressure:                            0.259872E-07 au     0.764569E+06 Pa

Warning: dipole moment is not defined absolutely!
Dipole moment:   -0.26993844    0.92434720   -0.13203015 au
Dipole moment:   -0.68611514    2.34945642   -0.33558720 Debye


