 Fermi distribution function

Calculation with static geometry


********************************************************************************
 iSCC Total electronic   Diff electronic      SCC error    
    6   -0.13400277E+02   -0.63520194E-08    0.12112137E-04
********************************************************************************

 Total charge:    -0.00000000

 Atomic gross charges (e)
 Atom           Charge
    1       0.27335056
    2       0.07964481
    3      -0.36113837
    4       0.09867360
    5       0.39835998
    6       0.02208044
    7      -0.49038830
    8      -0.42479068
    9       0.40420797

Nr. of electrons (up):     28.00000000
Atom populations (up)
 Atom       Population
    1       3.72664944
    2       0.92035519
    3       4.36113837
    4       0.90132640
    5       3.60164002
    6       0.97791956
    7       6.49038830
    8       6.42479068
    9       0.59579203

l-shell populations (up)
 Atom Sh.   l       Population
    1   1   0       1.16675019
    1   2   1       2.55989925
    2   1   0       0.92035519
    3   1   0       1.25187621
    3   2   1       3.10926216
    4   1   0       0.90132640
    5   1   0       1.15631390
    5   2   1       2.44532613
    6   1   0       0.97791956
    7   1   0       1.76930907
    7   2   1       4.72107923
    8   1   0       1.73620694
    8   2   1       4.68858374
    9   1   0       0.59579203

Orbital populations (up)
 Atom Sh.   l   m       Population  Label
    1   1   0   0       1.16675019  s
    1   2   1  -1       0.88212310  p_y
    1   2   1   0       0.88875622  p_z
    1   2   1   1       0.78901992  p_x
    2   1   0   0       0.92035519  s
    3   1   0   0       1.25187621  s
    3   2   1  -1       1.13254305  p_y
    3   2   1   0       1.00218729  p_z
    3   2   1   1       0.97453181  p_x
    4   1   0   0       0.90132640  s
    5   1   0   0       1.15631390  s
    5   2   1  -1       0.79182695  p_y
    5   2   1   0       0.87147073  p_z
    5   2   1   1       0.78202845  p_x
    6   1   0   0       0.97791956  s
    7   1   0   0       1.76930907  s
    7   2   1  -1       1.55093264  p_y
    7   2   1   0       1.72996718  p_z
    7   2   1   1       1.44017942  p_x
    8   1   0   0       1.73620694  s
    8   2   1  -1       1.57676407  p_y
    8   2   1   0       1.71809119  p_z
    8   2   1   1       1.39372848  p_x
    9   1   0   0       0.59579203  s

Fermi level:                        -0.1650935497 H           -4.4924 eV
Band energy:                       -13.1202283729 H         -357.0196 eV
TS:                                  0.0000000000 H            0.0000 eV
Band free energy (E-TS):           -13.1202283729 H         -357.0196 eV
Extrapolated E(0K):                -13.1202283729 H         -357.0196 eV
Input / Output electrons (q):     28.0000000000     28.0000000000

Energy H0:                         -13.4208192405 H         -365.1991 eV
Energy SCC:                          0.0228784760 H            0.6226 eV
Energy 3rd:                         -0.0023361449 H           -0.0636 eV
Total Electronic energy:           -13.4002769094 H         -364.6401 eV
Repulsive energy:                    0.1628691327 H            4.4319 eV
Dispersion energy:                  -0.0036909215 H           -0.1004 eV
Total energy:                      -13.2410986982 H         -360.3086 eV
Extrapolated to 0:                 -13.2410986982 H         -360.3086 eV
Total Mermin free energy:          -13.2410986982 H         -360.3086 eV
Force related energy:              -13.2410986982 H         -360.3086 eV

SCC converged

Total Forces
    1     -0.023577125754     -0.032459433913      0.007398974619
    2      0.007011283883      0.012321992223     -0.012623312048
    3      0.004492946575      0.002124464657      0.013789968361
    4     -0.014570576000      0.000399239476     -0.001053846997
    5      0.005139561311     -0.003115053625     -0.029086553321
    6     -0.004542103355     -0.003068057089      0.011868847366
    7      0.014040812844      0.006597130157      0.009886743706
    8      0.017933732433      0.024833826772     -0.012874265616
    9     -0.005928531937     -0.007634108658      0.012693443930

Total stress tensor
     -0.000000014499     -0.000000004964     -0.000000002625
     -0.000000004964      0.000000000797     -0.000000006059
     -0.000000002625     -0.000000006059      0.000000006293

Total lattice derivs
      0.000517781791      0.000177254015      0.000093730752
      0.000177254310     -0.000028476101      0.000216353445
      0.000093730849      0.000216353470     -0.000224741246

Maximal derivative component:        0.324594E-01 au

Volume:                              0.674833E+07 au^3
Pressure:                           -0.246952E-08 au    -0.726558E+05 Pa

Warning: dipole moment is not defined absolutely!
Dipole moment:    0.92369538    0.41855419   -0.05805362 au
Dipole moment:    2.34779967    1.06385873   -0.14755760 Debye


