 Fermi distribution function

Calculation with static geometry


********************************************************************************
 iSCC Total electronic   Diff electronic      SCC error    
    6   -0.13461039E+02   -0.43722199E-08    0.75335929E-04
********************************************************************************

 Total charge:     0.00000000

 Atomic gross charges (e)
 Atom           Charge
    1       0.27573480
    2       0.07304133
    3      -0.34271582
    4       0.08684582
    5       0.41226298
    6      -0.00755044
    7      -0.48432587
    8      -0.41393054
    9       0.40063773

Nr. of electrons (up):     28.00000000
Atom populations (up)
 Atom       Population
    1       3.72426520
    2       0.92695867
    3       4.34271582
    4       0.91315418
    5       3.58773702
    6       1.00755044
    7       6.48432587
    8       6.41393054
    9       0.59936227

l-shell populations (up)
 Atom Sh.   l       Population
    1   1   0       1.12811208
    1   2   1       2.59615311
    2   1   0       0.92695867
    3   1   0       1.21713157
    3   2   1       3.12558425
    4   1   0       0.91315418
    5   1   0       1.13972788
    5   2   1       2.44800914
    6   1   0       1.00755044
    7   1   0       1.75665562
    7   2   1       4.72767025
    8   1   0       1.73669565
    8   2   1       4.67723489
    9   1   0       0.59936227

Orbital populations (up)
 Atom Sh.   l   m       Population  Label
    1   1   0   0       1.12811208  s
    1   2   1  -1       0.84100396  p_y
    1   2   1   0       0.89585368  p_z
    1   2   1   1       0.85929547  p_x
    2   1   0   0       0.92695867  s
    3   1   0   0       1.21713157  s
    3   2   1  -1       0.98313090  p_y
    3   2   1   0       1.01710667  p_z
    3   2   1   1       1.12534669  p_x
    4   1   0   0       0.91315418  s
    5   1   0   0       1.13972788  s
    5   2   1  -1       0.79124171  p_y
    5   2   1   0       0.88305958  p_z
    5   2   1   1       0.77370785  p_x
    6   1   0   0       1.00755044  s
    7   1   0   0       1.75665562  s
    7   2   1  -1       1.49540716  p_y
    7   2   1   0       1.77838716  p_z
    7   2   1   1       1.45387592  p_x
    8   1   0   0       1.73669565  s
    8   2   1  -1       1.27627253  p_y
    8   2   1   0       1.68128522  p_z
    8   2   1   1       1.71967714  p_x
    9   1   0   0       0.59936227  s

Fermi level:                        -0.1596193983 H           -4.3435 eV
Band energy:                       -13.3069427999 H         -362.1003 eV
TS:                                  0.0000000000 H            0.0000 eV
Band free energy (E-TS):           -13.3069427999 H         -362.1003 eV
Extrapolated E(0K):                -13.3069427999 H         -362.1003 eV
Input / Output electrons (q):     28.0000000000     28.0000000000

Energy H0:                         -13.4802436558 H         -366.8161 eV
Energy SCC:                          0.0210637480 H            0.5732 eV
Energy 3rd:                         -0.0018592136 H           -0.0506 eV
Total Electronic energy:           -13.4610391214 H         -366.2935 eV
Repulsive energy:                    0.2379988377 H            6.4763 eV
Dispersion energy:                  -0.0037212872 H           -0.1013 eV
Total energy:                      -13.2267615709 H         -359.9185 eV
Extrapolated to 0:                 -13.2267615709 H         -359.9185 eV
Total Mermin free energy:          -13.2267615709 H         -359.9185 eV
Force related energy:              -13.2267615709 H         -359.9185 eV

SCC converged

Total Forces
    1      0.039849374159     -0.008032539048     -0.068288249518
    2      0.008042352411      0.037248843657     -0.029287387568
    3     -0.073438596124      0.056056054868      0.074588850703
    4      0.015475744435     -0.019591953173      0.001319069916
    5     -0.018165381348      0.006960233740      0.044910144061
    6      0.005902137199     -0.010772643265     -0.016713500483
    7      0.005714622274     -0.024154396640     -0.004083529105
    8      0.004204801499     -0.034253524236      0.008035693368
    9      0.012414945494     -0.003460075904     -0.010481091375

Total stress tensor
      0.000000012137     -0.000000002150     -0.000000020008
     -0.000000002150      0.000000030997     -0.000000008850
     -0.000000020008     -0.000000008850      0.000000034844

Total lattice derivs
     -0.000433403908      0.000076794313      0.000714500694
      0.000076795244     -0.001106906661      0.000316051557
      0.000714501159      0.000316049877     -0.001244305256

Maximal derivative component:        0.745889E-01 au

Volume:                              0.674833E+07 au^3
Pressure:                            0.259924E-07 au     0.764723E+06 Pa

Warning: dipole moment is not defined absolutely!
Dipole moment:   -0.27418575    0.91658156   -0.15136269 au
Dipole moment:   -0.69691072    2.32971813   -0.38472562 Debye


