 Fermi distribution function

Calculation with static geometry


********************************************************************************
 iSCC Total electronic   Diff electronic      SCC error    
    5   -0.13366554E+02   -0.11427678E-06    0.93255075E-04
********************************************************************************

 Total charge:    -0.00000000

 Atomic gross charges (e)
 Atom           Charge
    1       0.27686938
    2       0.08721262
    3      -0.37689855
    4       0.10276349
    5       0.41073104
    6       0.00889341
    7      -0.51614927
    8      -0.39919926
    9       0.40577714

Nr. of electrons (up):     28.00000000
Atom populations (up)
 Atom       Population
    1       3.72313062
    2       0.91278738
    3       4.37689855
    4       0.89723651
    5       3.58926896
    6       0.99110659
    7       6.51614927
    8       6.39919926
    9       0.59422286

l-shell populations (up)
 Atom Sh.   l       Population
    1   1   0       1.18382208
    1   2   1       2.53930853
    2   1   0       0.91278738
    3   1   0       1.26650729
    3   2   1       3.11039126
    4   1   0       0.89723651
    5   1   0       1.16008262
    5   2   1       2.42918633
    6   1   0       0.99110659
    7   1   0       1.77271614
    7   2   1       4.74343313
    8   1   0       1.73578761
    8   2   1       4.66341165
    9   1   0       0.59422286

Orbital populations (up)
 Atom Sh.   l   m       Population  Label
    1   1   0   0       1.18382208  s
    1   2   1  -1       0.81654914  p_y
    1   2   1   0       0.88728779  p_z
    1   2   1   1       0.83547160  p_x
    2   1   0   0       0.91278738  s
    3   1   0   0       1.26650729  s
    3   2   1  -1       0.97348492  p_y
    3   2   1   0       0.97386960  p_z
    3   2   1   1       1.16303675  p_x
    4   1   0   0       0.89723651  s
    5   1   0   0       1.16008262  s
    5   2   1  -1       0.78681528  p_y
    5   2   1   0       0.87273245  p_z
    5   2   1   1       0.76963859  p_x
    6   1   0   0       0.99110659  s
    7   1   0   0       1.77271614  s
    7   2   1  -1       1.49124588  p_y
    7   2   1   0       1.80052997  p_z
    7   2   1   1       1.45165729  p_x
    8   1   0   0       1.73578761  s
    8   2   1  -1       1.23917162  p_y
    8   2   1   0       1.70406983  p_z
    8   2   1   1       1.72017020  p_x
    9   1   0   0       0.59422286  s

Fermi level:                        -0.1649877195 H           -4.4895 eV
Band energy:                       -13.0470759181 H         -355.0290 eV
TS:                                  0.0000000000 H            0.0000 eV
Band free energy (E-TS):           -13.0470759181 H         -355.0290 eV
Extrapolated E(0K):                -13.0470759181 H         -355.0290 eV
Input / Output electrons (q):     28.0000000000     28.0000000000

Energy H0:                         -13.3889086347 H         -364.3307 eV
Energy SCC:                          0.0249326962 H            0.6785 eV
Energy 3rd:                         -0.0025784363 H           -0.0702 eV
Total Electronic energy:           -13.3665543748 H         -363.7225 eV
Repulsive energy:                    0.1334487006 H            3.6313 eV
Dispersion energy:                  -0.0036643178 H           -0.0997 eV
Total energy:                      -13.2367699920 H         -360.1908 eV
Extrapolated to 0:                 -13.2367699920 H         -360.1908 eV
Total Mermin free energy:          -13.2367699920 H         -360.1908 eV
Force related energy:              -13.2367699920 H         -360.1908 eV

SCC converged

Total Forces
    1     -0.038337755624     -0.042801587202      0.076268100763
    2      0.004088180364      0.022156193348     -0.017531832313
    3      0.030067047295      0.001978876349     -0.039795520736
    4      0.004855562120     -0.009505261091     -0.005836021427
    5      0.006958625368     -0.007420210817     -0.002587654396
    6      0.004609023777     -0.001923867270     -0.015782855413
    7     -0.008959716972      0.015593688759      0.003401607490
    8     -0.000184288007      0.011673602302     -0.003133481161
    9     -0.003096678321      0.010248565622      0.004997657195

Total stress tensor
     -0.000000010389      0.000000007228      0.000000015197
      0.000000007228     -0.000000013953     -0.000000005998
      0.000000015197     -0.000000005998     -0.000000026385

Total lattice derivs
      0.000371007017     -0.000258127788     -0.000542678911
     -0.000258128026      0.000498262060      0.000214181446
     -0.000542678830      0.000214181218      0.000942215846

Maximal derivative component:        0.762681E-01 au

Volume:                              0.674833E+07 au^3
Pressure:                           -0.169089E-07 au    -0.497477E+06 Pa

Warning: dipole moment is not defined absolutely!
Dipole moment:   -0.09839280    0.97258494   -0.28320615 au
Dipole moment:   -0.25008957    2.47206455   -0.71983828 Debye


