 Fermi distribution function

Calculation with static geometry


********************************************************************************
 iSCC Total electronic   Diff electronic      SCC error    
    1   -0.13462520E+02    0.00000000E+00    0.59941390E-04
********************************************************************************

 Total charge:    -0.00000000

 Atomic gross charges (e)
 Atom           Charge
    1       0.27428714
    2       0.07588217
    3      -0.35439351
    4       0.09594744
    5       0.41221635
    6      -0.00656474
    7      -0.48551631
    8      -0.41215171
    9       0.40029316

Nr. of electrons (up):     28.00000000
Atom populations (up)
 Atom       Population
    1       3.72571286
    2       0.92411783
    3       4.35439351
    4       0.90405256
    5       3.58778365
    6       1.00656474
    7       6.48551631
    8       6.41215171
    9       0.59970684

l-shell populations (up)
 Atom Sh.   l       Population
    1   1   0       1.13044114
    1   2   1       2.59527172
    2   1   0       0.92411783
    3   1   0       1.21591931
    3   2   1       3.13847420
    4   1   0       0.90405256
    5   1   0       1.14085518
    5   2   1       2.44692847
    6   1   0       1.00656474
    7   1   0       1.75763450
    7   2   1       4.72788181
    8   1   0       1.73800934
    8   2   1       4.67414237
    9   1   0       0.59970684

Orbital populations (up)
 Atom Sh.   l   m       Population  Label
    1   1   0   0       1.13044114  s
    1   2   1  -1       0.84286111  p_y
    1   2   1   0       0.89474490  p_z
    1   2   1   1       0.85766571  p_x
    2   1   0   0       0.92411783  s
    3   1   0   0       1.21591931  s
    3   2   1  -1       0.99207591  p_y
    3   2   1   0       1.02036721  p_z
    3   2   1   1       1.12603108  p_x
    4   1   0   0       0.90405256  s
    5   1   0   0       1.14085518  s
    5   2   1  -1       0.79071376  p_y
    5   2   1   0       0.88215294  p_z
    5   2   1   1       0.77406177  p_x
    6   1   0   0       1.00656474  s
    7   1   0   0       1.75763450  s
    7   2   1  -1       1.49643098  p_y
    7   2   1   0       1.77423526  p_z
    7   2   1   1       1.45721557  p_x
    8   1   0   0       1.73800934  s
    8   2   1  -1       1.27949759  p_y
    8   2   1   0       1.67585232  p_z
    8   2   1   1       1.71879245  p_x
    9   1   0   0       0.59970684  s

Fermi level:                        -0.1600666869 H           -4.3556 eV
Band energy:                       -13.3006899837 H         -361.9302 eV
TS:                                  0.0000000000 H            0.0000 eV
Band free energy (E-TS):           -13.3006899837 H         -361.9302 eV
Extrapolated E(0K):                -13.3006899837 H         -361.9302 eV
Input / Output electrons (q):     28.0000000000     28.0000000000

Energy H0:                         -13.4818461951 H         -366.8597 eV
Energy SCC:                          0.0211907903 H            0.5766 eV
Energy 3rd:                         -0.0018647757 H           -0.0507 eV
Total Electronic energy:           -13.4625201805 H         -366.3338 eV
Repulsive energy:                    0.2376475035 H            6.4667 eV
Dispersion energy:                  -0.0037238830 H           -0.1013 eV
Total energy:                      -13.2285965599 H         -359.9684 eV
Extrapolated to 0:                 -13.2285965599 H         -359.9684 eV
Total Mermin free energy:          -13.2285965599 H         -359.9684 eV
Force related energy:              -13.2285965599 H         -359.9684 eV

SCC converged

Total Forces
    1      0.030235586539     -0.017287206432     -0.052047719545
    2      0.009243015398      0.046287009155     -0.033844338442
    3     -0.053339495353      0.032317972722      0.057628215879
    4      0.003884073405      0.001398328789      0.007325064580
    5     -0.017720429485      0.008056333530      0.040264058631
    6      0.006712155474     -0.011935479397     -0.016318342790
    7      0.004859221664     -0.020942602027     -0.002995713703
    8      0.003551819926     -0.036868534436      0.013056168737
    9      0.012574052433     -0.001025821906     -0.013067393347

Total stress tensor
      0.000000012035     -0.000000004597     -0.000000017795
     -0.000000004598      0.000000036199     -0.000000008124
     -0.000000017795     -0.000000008124      0.000000030158

Total lattice derivs
     -0.000429778077      0.000164178255      0.000635484590
      0.000164180580     -0.001292692033      0.000290110970
      0.000635485214      0.000290108419     -0.001076944860

Maximal derivative component:        0.576282E-01 au

Volume:                              0.674833E+07 au^3
Pressure:                            0.261305E-07 au     0.768787E+06 Pa

Warning: dipole moment is not defined absolutely!
Dipole moment:   -0.26453191    0.92629319   -0.15155760 au
Dipole moment:   -0.67237309    2.35440263   -0.38522102 Debye


