 Fermi distribution function

Calculation with static geometry


********************************************************************************
 iSCC Total electronic   Diff electronic      SCC error    
    5   -0.13462797E+02   -0.20201941E-07    0.33172940E-04
********************************************************************************

 Total charge:    -0.00000000

 Atomic gross charges (e)
 Atom           Charge
    1       0.27323725
    2       0.07377856
    3      -0.35489693
    4       0.09884512
    5       0.41006870
    6      -0.00351482
    7      -0.48359317
    8      -0.41494159
    9       0.40101687

Nr. of electrons (up):     28.00000000
Atom populations (up)
 Atom       Population
    1       3.72676275
    2       0.92622144
    3       4.35489693
    4       0.90115488
    5       3.58993130
    6       1.00351482
    7       6.48359317
    8       6.41494159
    9       0.59898313

l-shell populations (up)
 Atom Sh.   l       Population
    1   1   0       1.13250278
    1   2   1       2.59425997
    2   1   0       0.92622144
    3   1   0       1.21552278
    3   2   1       3.13937414
    4   1   0       0.90115488
    5   1   0       1.14169109
    5   2   1       2.44824022
    6   1   0       1.00351482
    7   1   0       1.75797890
    7   2   1       4.72561427
    8   1   0       1.73868212
    8   2   1       4.67625947
    9   1   0       0.59898313

Orbital populations (up)
 Atom Sh.   l   m       Population  Label
    1   1   0   0       1.13250278  s
    1   2   1  -1       0.84180194  p_y
    1   2   1   0       0.89415561  p_z
    1   2   1   1       0.85830242  p_x
    2   1   0   0       0.92622144  s
    3   1   0   0       1.21552278  s
    3   2   1  -1       0.99399097  p_y
    3   2   1   0       1.02169034  p_z
    3   2   1   1       1.12369283  p_x
    4   1   0   0       0.90115488  s
    5   1   0   0       1.14169109  s
    5   2   1  -1       0.79065305  p_y
    5   2   1   0       0.88343878  p_z
    5   2   1   1       0.77414838  p_x
    6   1   0   0       1.00351482  s
    7   1   0   0       1.75797890  s
    7   2   1  -1       1.49616592  p_y
    7   2   1   0       1.77532357  p_z
    7   2   1   1       1.45412477  p_x
    8   1   0   0       1.73868212  s
    8   2   1  -1       1.27872503  p_y
    8   2   1   0       1.67672522  p_z
    8   2   1   1       1.72080922  p_x
    9   1   0   0       0.59898313  s

Fermi level:                        -0.1605310285 H           -4.3683 eV
Band energy:                       -13.3018531608 H         -361.9618 eV
TS:                                  0.0000000000 H            0.0000 eV
Band free energy (E-TS):           -13.3018531608 H         -361.9618 eV
Extrapolated E(0K):                -13.3018531608 H         -361.9618 eV
Input / Output electrons (q):     28.0000000000     28.0000000000

Energy H0:                         -13.4820625694 H         -366.8656 eV
Energy SCC:                          0.0211246683 H            0.5748 eV
Energy 3rd:                         -0.0018594314 H           -0.0506 eV
Total Electronic energy:           -13.4627973326 H         -366.3414 eV
Repulsive energy:                    0.2369932602 H            6.4489 eV
Dispersion energy:                  -0.0037244044 H           -0.1013 eV
Total energy:                      -13.2295284768 H         -359.9938 eV
Extrapolated to 0:                 -13.2295284768 H         -359.9938 eV
Total Mermin free energy:          -13.2295284768 H         -359.9938 eV
Force related energy:              -13.2295284768 H         -359.9938 eV

SCC converged

Total Forces
    1      0.035369001450     -0.014136740351     -0.061764689686
    2      0.007512883681      0.040048685721     -0.028949107569
    3     -0.051297507670      0.023073152585      0.059674060556
    4      0.000566168483      0.007348218784      0.008632837941
    5     -0.015256048130      0.009802358390      0.034890515843
    6      0.005371375584     -0.012688722117     -0.013040219427
    7      0.003416529551     -0.018904749165     -0.001569676958
    8      0.002312443157     -0.029586624944      0.012704874311
    9      0.012005153894     -0.004955578902     -0.010578595011

Total stress tensor
      0.000000012574     -0.000000004767     -0.000000018430
     -0.000000004767      0.000000034430     -0.000000007814
     -0.000000018430     -0.000000007814      0.000000031208

Total lattice derivs
     -0.000449025755      0.000170234974      0.000658158463
      0.000170234753     -0.001229528121      0.000279046886
      0.000658158256      0.000279047475     -0.001114465071

Maximal derivative component:        0.617647E-01 au

Volume:                              0.674833E+07 au^3
Pressure:                            0.260708E-07 au     0.767030E+06 Pa

Warning: dipole moment is not defined absolutely!
Dipole moment:   -0.28610495    0.92937071   -0.12688357 au
Dipole moment:   -0.72720630    2.36222492   -0.32250590 Debye


