|===============================================================================
|
|  DFTB+ release 22.2
|
|  Copyright (C) 2006 - 2022  DFTB+ developers group
|
|===============================================================================
|
|  When publishing results obtained with DFTB+, please cite the following
|  reference:
|
|  * DFTB+, a software package for efficient approximate density functional
|    theory based atomistic simulations, J. Chem. Phys. 152, 124101 (2020).
|    [doi: 10.1063/1.5143190]
|
|  You should also cite additional publications crediting the parametrization
|  data you use. Please consult the documentation of the SK-files for the
|  references.
|
|===============================================================================

Reading input file 'dftb_in.hsd'
Parser version: 12

--------------------------------------------------------------------------------
***  Converting input from parser version  5 to parser version 12 ...
WARNING!
-> Keyword DampXH moved to HCorrection block
Path: dftbplusinput/Hamiltonian/DFTB/DampXH
Line: 25-25 (File: dftb_in.hsd)

WARNING!
-> Adding Damping to HCorrection
Path: dftbplusinput/Hamiltonian/DFTB/HCorrection

***  Done.

Reading SK-files:
/home/jag/skf_files/3ob-3-1/C-C.skf
/home/jag/skf_files/3ob-3-1/C-H.skf
/home/jag/skf_files/3ob-3-1/C-O.skf
/home/jag/skf_files/3ob-3-1/H-H.skf
/home/jag/skf_files/3ob-3-1/H-O.skf
/home/jag/skf_files/3ob-3-1/O-O.skf
Done.


Processed input in HSD format written to 'dftb_pin.hsd'

Starting initialization...
--------------------------------------------------------------------------------
WARNING!
-> Dipole printed for extended system : value printed is not well defined
OpenMP threads:              6
Chosen random seed:          1232199775
Mode:                        Static calculation
Self consistent charges:     Yes
SCC-tolerance:                 0.100000E-03
Max. scc iterations:                    250
Shell resolved Hubbard:      No
Spin polarisation:           No
Nr. of up electrons:            14.000000
Nr. of down electrons:          14.000000
Periodic boundaries:         Yes
Electronic solver:           Relatively robust
Mixer:                       Broyden mixer
Mixing parameter:                  0.200000
Maximal SCC-cycles:                     250
Nr. of chrg. vec. in memory:            250
Electronic temperature:              0.100000E-07 H      0.272114E-06 eV
Initial charges:             Read in from 'charges'
Included shells:             C:  s, p
                             H:  s
                             O:  s, p
K-points and weights:           1:  0.000000  0.000000  0.000000     1.000000

K-points in absolute space:     1:  0.000000  0.000000  0.000000

s-dftd3 library version:     0.7.0
-> damping function:         rational damping
Full 3rd order correction    Yes
Damped SCC                   Yes
Damped species(s):           H                                                 
Extra options:
                             Mulliken analysis
                             Force calculation
Force type                   original

--------------------------------------------------------------------------------

***  Geometry step: 0

 iSCC Total electronic   Diff electronic      SCC error    
    1    0.00000000E+00    0.00000000E+00    0.35215079E-01
    2   -0.13427499E+02   -0.13427499E+02    0.22293285E-01
    3   -0.13427541E+02   -0.41317974E-04    0.40711778E-02
    4   -0.13427566E+02   -0.25611610E-04    0.10550956E-02
    5   -0.13427567E+02   -0.77363883E-06    0.38425215E-03
    6   -0.13427567E+02   -0.20459186E-07    0.12971645E-03
    7   -0.13427567E+02   -0.23836559E-08    0.85952668E-05
>> Charges saved for restart in charges.bin

Total Energy:                      -13.2411038355 H         -360.3088 eV
Extrapolated to 0K:                -13.2411038355 H         -360.3088 eV
Total Mermin free energy:          -13.2411038355 H         -360.3088 eV
Force related energy:              -13.2411038355 H         -360.3088 eV

Volume:                              0.674833E+07 au^3   0.100000E+07 A^3
Pressure:                            0.966117E-08 au     0.284241E+06 Pa

--------------------------------------------------------------------------------
DFTB+ running times                          cpu [s]             wall clock [s]
--------------------------------------------------------------------------------
SCC                                    +       0.11 ( 78.7%)       0.02 ( 86.4%)
Post-SCC processing                    +       0.03 ( 18.7%)       0.00 (  4.5%)
--------------------------------------------------------------------------------
Missing                                +       0.00 (  2.6%)       0.00 (  9.1%)
Total                                  =       0.14 (100.0%)       0.02 (100.0%)
--------------------------------------------------------------------------------
