 Fermi distribution function

Calculation with static geometry


********************************************************************************
 iSCC Total electronic   Diff electronic      SCC error    
    5   -0.13349555E+02   -0.52643291E-07    0.58871807E-04
********************************************************************************

 Total charge:    -0.00000000

 Atomic gross charges (e)
 Atom           Charge
    1       0.31942639
    2       0.05462426
    3      -0.37557273
    4       0.12289241
    5       0.38605366
    6       0.00736191
    7      -0.51655131
    8      -0.41486593
    9       0.41663134

Nr. of electrons (up):     28.00000000
Atom populations (up)
 Atom       Population
    1       3.68057361
    2       0.94537574
    3       4.37557273
    4       0.87710759
    5       3.61394634
    6       0.99263809
    7       6.51655131
    8       6.41486593
    9       0.58336866

l-shell populations (up)
 Atom Sh.   l       Population
    1   1   0       1.15779548
    1   2   1       2.52277813
    2   1   0       0.94537574
    3   1   0       1.24694235
    3   2   1       3.12863038
    4   1   0       0.87710759
    5   1   0       1.18575790
    5   2   1       2.42818844
    6   1   0       0.99263809
    7   1   0       1.77426602
    7   2   1       4.74228529
    8   1   0       1.73871828
    8   2   1       4.67614765
    9   1   0       0.58336866

Orbital populations (up)
 Atom Sh.   l   m       Population  Label
    1   1   0   0       1.15779548  s
    1   2   1  -1       0.81046293  p_y
    1   2   1   0       0.89200717  p_z
    1   2   1   1       0.82030803  p_x
    2   1   0   0       0.94537574  s
    3   1   0   0       1.24694235  s
    3   2   1  -1       0.97048795  p_y
    3   2   1   0       0.97640831  p_z
    3   2   1   1       1.18173412  p_x
    4   1   0   0       0.87710759  s
    5   1   0   0       1.18575790  s
    5   2   1  -1       0.80204492  p_y
    5   2   1   0       0.82160152  p_z
    5   2   1   1       0.80454201  p_x
    6   1   0   0       0.99263809  s
    7   1   0   0       1.77426602  s
    7   2   1  -1       1.52725336  p_y
    7   2   1   0       1.64084806  p_z
    7   2   1   1       1.57418387  p_x
    8   1   0   0       1.73871828  s
    8   2   1  -1       1.27088682  p_y
    8   2   1   0       1.73301704  p_z
    8   2   1   1       1.67224380  p_x
    9   1   0   0       0.58336866  s

Fermi level:                        -0.1617077119 H           -4.4003 eV
Band energy:                       -13.0915713428 H         -356.2398 eV
TS:                                  0.0000000000 H            0.0000 eV
Band free energy (E-TS):           -13.0915713428 H         -356.2398 eV
Extrapolated E(0K):                -13.0915713428 H         -356.2398 eV
Input / Output electrons (q):     28.0000000000     28.0000000000

Energy H0:                         -13.3698027157 H         -363.8108 eV
Energy SCC:                          0.0227030041 H            0.6178 eV
Energy 3rd:                         -0.0024555017 H           -0.0668 eV
Total Electronic energy:           -13.3495552133 H         -363.2599 eV
Repulsive energy:                    0.1281237946 H            3.4864 eV
Dispersion energy:                  -0.0036850854 H           -0.1003 eV
Total energy:                      -13.2251165042 H         -359.8737 eV
Extrapolated to 0:                 -13.2251165042 H         -359.8737 eV
Total Mermin free energy:          -13.2251165042 H         -359.8737 eV
Force related energy:              -13.2251165042 H         -359.8737 eV

SCC converged

Total Forces
    1     -0.008291121454      0.033024781603      0.004802243940
    2      0.006518282026     -0.018095919620      0.006520060936
    3     -0.010735594756     -0.025705134718      0.029892016314
    4      0.008684316473      0.002032807493     -0.030352925637
    5     -0.010930140694     -0.047511146376      0.027359982258
    6      0.025299757421      0.024485060270     -0.029214686879
    7     -0.007946235116      0.018743199705     -0.003144049017
    8     -0.004668736734      0.001265579643     -0.006743626947
    9      0.002069472834      0.011760772002      0.000880985033

Total stress tensor
     -0.000000009758      0.000000003588      0.000000010276
      0.000000003588     -0.000000017343     -0.000000000497
      0.000000010276     -0.000000000497     -0.000000015371

Total lattice derivs
      0.000348447798     -0.000128137694     -0.000366957548
     -0.000128137496      0.000619344048      0.000017746947
     -0.000366957164      0.000017746041      0.000548914095

Maximal derivative component:        0.475111E-01 au

Volume:                              0.674833E+07 au^3
Pressure:                           -0.141574E-07 au    -0.416524E+06 Pa

Warning: dipole moment is not defined absolutely!
Dipole moment:   -0.34076252    0.90608650   -0.20621696 au
Dipole moment:   -0.86613200    2.30304235   -0.52415128 Debye


