 Fermi distribution function

Calculation with static geometry


********************************************************************************
 iSCC Total electronic   Diff electronic      SCC error    
   11   -0.13200854E+02   -0.84501188E-08    0.64142774E-05
********************************************************************************

 Total charge:    -0.00000000

 Atomic gross charges (e)
 Atom           Charge
    1       0.23204840
    2       0.10444258
    3      -0.33539364
    4       0.12621311
    5       0.32860769
    6       0.08026785
    7      -0.53367940
    8      -0.40759010
    9       0.40508352

Nr. of electrons (up):     28.00000000
Atom populations (up)
 Atom       Population
    1       3.76795160
    2       0.89555742
    3       4.33539364
    4       0.87378689
    5       3.67139231
    6       0.91973215
    7       6.53367940
    8       6.40759010
    9       0.59491648

l-shell populations (up)
 Atom Sh.   l       Population
    1   1   0       1.24594577
    1   2   1       2.52200584
    2   1   0       0.89555742
    3   1   0       1.29855313
    3   2   1       3.03684051
    4   1   0       0.87378689
    5   1   0       1.24397684
    5   2   1       2.42741547
    6   1   0       0.91973215
    7   1   0       1.85712290
    7   2   1       4.67655651
    8   1   0       1.76356724
    8   2   1       4.64402286
    9   1   0       0.59491648

Orbital populations (up)
 Atom Sh.   l   m       Population  Label
    1   1   0   0       1.24594577  s
    1   2   1  -1       0.80540457  p_y
    1   2   1   0       0.86238237  p_z
    1   2   1   1       0.85421890  p_x
    2   1   0   0       0.89555742  s
    3   1   0   0       1.29855313  s
    3   2   1  -1       1.03996343  p_y
    3   2   1   0       0.95912316  p_z
    3   2   1   1       1.03775392  p_x
    4   1   0   0       0.87378689  s
    5   1   0   0       1.24397684  s
    5   2   1  -1       0.77206025  p_y
    5   2   1   0       0.89725907  p_z
    5   2   1   1       0.75809615  p_x
    6   1   0   0       0.91973215  s
    7   1   0   0       1.85712290  s
    7   2   1  -1       1.35230142  p_y
    7   2   1   0       1.90169240  p_z
    7   2   1   1       1.42256268  p_x
    8   1   0   0       1.76356724  s
    8   2   1  -1       1.21118598  p_y
    8   2   1   0       1.68208579  p_z
    8   2   1   1       1.75075109  p_x
    9   1   0   0       0.59491648  s

Fermi level:                        -0.1833676136 H           -4.9897 eV
Band energy:                       -12.7860630610 H         -347.9265 eV
TS:                                  0.0000000000 H            0.0000 eV
Band free energy (E-TS):           -12.7860630610 H         -347.9265 eV
Extrapolated E(0K):                -12.7860630610 H         -347.9265 eV
Input / Output electrons (q):     28.0000000000     28.0000000000

Energy H0:                         -13.2328856874 H         -360.0851 eV
Energy SCC:                          0.0351889353 H            0.9575 eV
Energy 3rd:                         -0.0031573961 H           -0.0859 eV
Total Electronic energy:           -13.2008541482 H         -359.2135 eV
Repulsive energy:                    0.0494896274 H            1.3467 eV
Dispersion energy:                  -0.0036031354 H           -0.0980 eV
Total energy:                      -13.1549676562 H         -357.9649 eV
Extrapolated to 0:                 -13.1549676562 H         -357.9649 eV
Total Mermin free energy:          -13.1549676562 H         -357.9649 eV
Force related energy:              -13.1549676562 H         -357.9649 eV

SCC converged

Total Forces
    1     -0.054506405869     -0.080225408299      0.078556829626
    2      0.004040465881      0.005165712434     -0.014969746865
    3      0.079183640835     -0.058016102481     -0.044410380608
    4      0.001287474762      0.017513115464      0.006120351376
    5      0.024121842925     -0.099485106057     -0.109129062283
    6     -0.005729064793      0.002817806616      0.018451908215
    7     -0.022541924899      0.137885036838      0.034604989322
    8     -0.016006277304      0.090279370129      0.009989031430
    9     -0.009849751538     -0.015934424644      0.020786079786

Total stress tensor
     -0.000000025047      0.000000022529      0.000000026524
      0.000000022529     -0.000000082067     -0.000000012862
      0.000000026524     -0.000000012862     -0.000000045394

Total lattice derivs
      0.000894461284     -0.000804530518     -0.000947182796
     -0.000804530560      0.002930666631      0.000459295542
     -0.000947182859      0.000459295585      0.001621059698

Maximal derivative component:        0.137885E+00 au

Volume:                              0.674833E+07 au^3
Pressure:                           -0.508363E-07 au    -0.149565E+07 Pa

Warning: dipole moment is not defined absolutely!
Dipole moment:   -0.10956739    1.46490402   -0.10662950 au
Dipole moment:   -0.27849255    3.72341493   -0.27102518 Debye


