 Fermi distribution function

Calculation with static geometry


********************************************************************************
 iSCC Total electronic   Diff electronic      SCC error    
    4   -0.13559644E+02   -0.36052446E-05    0.99895046E-04
********************************************************************************

 Total charge:    -0.00000000

 Atomic gross charges (e)
 Atom           Charge
    1       0.26347527
    2       0.05093048
    3      -0.40035808
    4       0.11610866
    5       0.41210478
    6      -0.01583968
    7      -0.39405261
    8      -0.40611078
    9       0.37374195

Nr. of electrons (up):     28.00000000
Atom populations (up)
 Atom       Population
    1       3.73652473
    2       0.94906952
    3       4.40035808
    4       0.88389134
    5       3.58789522
    6       1.01583968
    7       6.39405261
    8       6.40611078
    9       0.62625805

l-shell populations (up)
 Atom Sh.   l       Population
    1   1   0       1.10991659
    1   2   1       2.62660815
    2   1   0       0.94906952
    3   1   0       1.23390562
    3   2   1       3.16645246
    4   1   0       0.88389134
    5   1   0       1.12833491
    5   2   1       2.45956031
    6   1   0       1.01583968
    7   1   0       1.71047568
    7   2   1       4.68357693
    8   1   0       1.70663911
    8   2   1       4.69947167
    9   1   0       0.62625805

Orbital populations (up)
 Atom Sh.   l   m       Population  Label
    1   1   0   0       1.10991659  s
    1   2   1  -1       0.86146673  p_y
    1   2   1   0       0.89593124  p_z
    1   2   1   1       0.86921017  p_x
    2   1   0   0       0.94906952  s
    3   1   0   0       1.23390562  s
    3   2   1  -1       1.00147557  p_y
    3   2   1   0       1.02714148  p_z
    3   2   1   1       1.13783541  p_x
    4   1   0   0       0.88389134  s
    5   1   0   0       1.12833491  s
    5   2   1  -1       0.81406197  p_y
    5   2   1   0       0.88908370  p_z
    5   2   1   1       0.75641463  p_x
    6   1   0   0       1.01583968  s
    7   1   0   0       1.71047568  s
    7   2   1  -1       1.51361200  p_y
    7   2   1   0       1.82475048  p_z
    7   2   1   1       1.34521446  p_x
    8   1   0   0       1.70663911  s
    8   2   1  -1       1.25665222  p_y
    8   2   1   0       1.70755179  p_z
    8   2   1   1       1.73526766  p_x
    9   1   0   0       0.62625805  s

Fermi level:                        -0.1287280769 H           -3.5029 eV
Band energy:                       -13.3434268761 H         -363.0931 eV
TS:                                  0.0000000000 H            0.0000 eV
Band free energy (E-TS):           -13.3434268761 H         -363.0931 eV
Extrapolated E(0K):                -13.3434268761 H         -363.0931 eV
Input / Output electrons (q):     28.0000000000     28.0000000000

Energy H0:                         -13.5736123464 H         -369.3568 eV
Energy SCC:                          0.0150688223 H            0.4100 eV
Energy 3rd:                         -0.0011003137 H           -0.0299 eV
Total Electronic energy:           -13.5596438377 H         -368.9767 eV
Repulsive energy:                    0.3703825730 H           10.0786 eV
Dispersion energy:                  -0.0036917260 H           -0.1005 eV
Total energy:                      -13.1929529907 H         -358.9985 eV
Extrapolated to 0:                 -13.1929529907 H         -358.9985 eV
Total Mermin free energy:          -13.1929529907 H         -358.9985 eV
Force related energy:              -13.1929529907 H         -358.9985 eV

SCC converged

Total Forces
    1      0.053516069289      0.040985523943     -0.114035278672
    2     -0.005181025684      0.035578790801     -0.011613713672
    3     -0.070804039933     -0.026040109453      0.116530629358
    4     -0.003005502792      0.011267846189      0.007873161291
    5     -0.044206467970      0.189663814947      0.031926138091
    6     -0.015072333056      0.018342750211      0.025775269716
    7      0.057690424973     -0.195872707851     -0.056580495424
    8      0.030341240492     -0.035564054179     -0.023868006987
    9     -0.003278365319     -0.038361854608      0.023992296299

Total stress tensor
      0.000000025775     -0.000000029366     -0.000000033570
     -0.000000029366      0.000000094585      0.000000017574
     -0.000000033570      0.000000017574      0.000000053596

Total lattice derivs
     -0.000920429741      0.001048665676      0.001198797545
      0.001048668499     -0.003377686996     -0.000627589095
      0.001198794845     -0.000627584884     -0.001913956164

Maximal derivative component:        0.195873E+00 au

Volume:                              0.674833E+07 au^3
Pressure:                            0.579853E-07 au     0.170598E+07 Pa

Warning: dipole moment is not defined absolutely!
Dipole moment:   -0.04641905    0.50718798   -0.04906829 au
Dipole moment:   -0.11798546    1.28914337   -0.12471916 Debye


