|===============================================================================
|
|  DFTB+ release 22.2
|
|  Copyright (C) 2006 - 2022  DFTB+ developers group
|
|===============================================================================
|
|  When publishing results obtained with DFTB+, please cite the following
|  reference:
|
|  * DFTB+, a software package for efficient approximate density functional
|    theory based atomistic simulations, J. Chem. Phys. 152, 124101 (2020).
|    [doi: 10.1063/1.5143190]
|
|  You should also cite additional publications crediting the parametrization
|  data you use. Please consult the documentation of the SK-files for the
|  references.
|
|===============================================================================

Reading input file 'dftb_in.hsd'
Parser version: 12

--------------------------------------------------------------------------------
***  Converting input from parser version  5 to parser version 12 ...
WARNING!
-> Keyword DampXH moved to HCorrection block
Path: dftbplusinput/Hamiltonian/DFTB/DampXH
Line: 25-25 (File: dftb_in.hsd)

WARNING!
-> Adding Damping to HCorrection
Path: dftbplusinput/Hamiltonian/DFTB/HCorrection

***  Done.

Reading SK-files:
/home/jag/skf_files/3ob-3-1/C-C.skf
/home/jag/skf_files/3ob-3-1/C-H.skf
/home/jag/skf_files/3ob-3-1/C-O.skf
/home/jag/skf_files/3ob-3-1/H-H.skf
/home/jag/skf_files/3ob-3-1/H-O.skf
/home/jag/skf_files/3ob-3-1/O-O.skf
Done.


Processed input in HSD format written to 'dftb_pin.hsd'

Starting initialization...
--------------------------------------------------------------------------------
WARNING!
-> Dipole printed for extended system : value printed is not well defined
OpenMP threads:              6
Chosen random seed:          1415930472
Mode:                        Static calculation
Self consistent charges:     Yes
SCC-tolerance:                 0.100000E-03
Max. scc iterations:                    250
Shell resolved Hubbard:      No
Spin polarisation:           No
Nr. of up electrons:            14.000000
Nr. of down electrons:          14.000000
Periodic boundaries:         Yes
Electronic solver:           Relatively robust
Mixer:                       Broyden mixer
Mixing parameter:                  0.200000
Maximal SCC-cycles:                     250
Nr. of chrg. vec. in memory:            250
Electronic temperature:              0.100000E-07 H      0.272114E-06 eV
Initial charges:             Set automatically (system chrg:   0.000E+00)
Included shells:             C:  s, p
                             H:  s
                             O:  s, p
K-points and weights:           1:  0.000000  0.000000  0.000000     1.000000

K-points in absolute space:     1:  0.000000  0.000000  0.000000

s-dftd3 library version:     0.7.0
-> damping function:         rational damping
Full 3rd order correction    Yes
Damped SCC                   Yes
Damped species(s):           H                                                 
Extra options:
                             Mulliken analysis
                             Force calculation
Force type                   original

--------------------------------------------------------------------------------

***  Geometry step: 0

 iSCC Total electronic   Diff electronic      SCC error    
    1    0.00000000E+00    0.00000000E+00    0.10411896E+01
    2   -0.13144193E+02   -0.13144193E+02    0.62865836E+00
    3   -0.13182503E+02   -0.38309510E-01    0.15809045E+00
    4   -0.13197897E+02   -0.15394895E-01    0.11502805E+00
    5   -0.13200695E+02   -0.27979878E-02    0.26085548E-01
    6   -0.13200807E+02   -0.11164661E-03    0.14938677E-01
    7   -0.13200838E+02   -0.30664835E-04    0.47046006E-02
    8   -0.13200853E+02   -0.15583340E-04    0.17743864E-02
    9   -0.13200854E+02   -0.74460444E-06    0.55320677E-03
   10   -0.13200854E+02   -0.10311560E-06    0.10879506E-03
   11   -0.13200854E+02   -0.84501188E-08    0.64142774E-05
>> Charges saved for restart in charges.bin

Total Energy:                      -13.1549676562 H         -357.9649 eV
Extrapolated to 0K:                -13.1549676562 H         -357.9649 eV
Total Mermin free energy:          -13.1549676562 H         -357.9649 eV
Force related energy:              -13.1549676562 H         -357.9649 eV

Volume:                              0.674833E+07 au^3   0.100000E+07 A^3
Pressure:                           -0.508363E-07 au    -0.149565E+07 Pa

--------------------------------------------------------------------------------
DFTB+ running times                          cpu [s]             wall clock [s]
--------------------------------------------------------------------------------
SCC                                    +       0.71 ( 94.8%)       0.10 ( 94.3%)
Post-SCC processing                    +       0.04 (  4.7%)       0.00 (  3.8%)
--------------------------------------------------------------------------------
Missing                                +       0.00 (  0.5%)       0.00 (  1.9%)
Total                                  =       0.75 (100.0%)       0.11 (100.0%)
--------------------------------------------------------------------------------
