|===============================================================================
|
|  DFTB+ release 23.1
|
|  Copyright (C) 2006 - 2023  DFTB+ developers group
|
|===============================================================================
|
|  When publishing results obtained with DFTB+, please cite the following
|  reference:
|
|  * DFTB+, a software package for efficient approximate density functional
|    theory based atomistic simulations, J. Chem. Phys. 152, 124101 (2020).
|    [doi: 10.1063/1.5143190]
|
|  You should also cite additional publications crediting the parametrization
|  data you use. Please consult the documentation of the SK-files for the
|  references.
|
|===============================================================================

Reading input file 'dftb_in.hsd'
Parser version: 13

--------------------------------------------------------------------------------
***  Converting input from parser version  5 to parser version 13 ...
WARNING!
-> Keyword DampXH moved to HCorrection block
Path: dftbplusinput/Hamiltonian/DFTB/DampXH
Line: 25-25 (File: dftb_in.hsd)

WARNING!
-> Adding Damping to HCorrection
Path: dftbplusinput/Hamiltonian/DFTB/HCorrection

***  Done.

Reading SK-files:
/home/jag/skf_files/3ob-3-1/Zn-Zn.skf
/home/jag/skf_files/3ob-3-1/Zn-O.skf
/home/jag/skf_files/3ob-3-1/Zn-C.skf
/home/jag/skf_files/3ob-3-1/Zn-H.skf
/home/jag/skf_files/3ob-3-1/O-O.skf
/home/jag/skf_files/3ob-3-1/O-C.skf
/home/jag/skf_files/3ob-3-1/O-H.skf
/home/jag/skf_files/3ob-3-1/C-C.skf
/home/jag/skf_files/3ob-3-1/C-H.skf
/home/jag/skf_files/3ob-3-1/H-H.skf
Done.


Processed input in HSD format written to 'dftb_pin.hsd'

Starting initialization...
--------------------------------------------------------------------------------
WARNING!
-> Dipole printed for extended system : value printed is not well defined
Chosen random seed:          88683910
Current stacksize:           8 [Mb] (recommended: unlimited)
WARNING!
-> Current stacksize not set to unlimited or hard limit, which might cause
   random crashes (e.g. segmentation faults). It is advised to unlimit the
   stacksize by issuing 'ulimit -s unlimited' (Linux) or setting it to the 
   hard limit by 'ulimit -s hard' (Mac) in advance.
Mode:                        Static calculation
Self consistent charges:     Yes
SCC-tolerance:                 0.100000E-03
Max. scc iterations:                    250
Shell resolved Hubbard:      No
Spin polarisation:           No
Nr. of up electrons:          1212.000000
Nr. of down electrons:        1212.000000
Periodic boundaries:         Yes
Electronic solver:           Relatively robust
Mixer:                       Broyden mixer
Mixing parameter:                  0.200000
Maximal SCC-cycles:                     250
Nr. of chrg. vec. in memory:            250
Electronic temperature:              0.100000E-07 H      0.272114E-06 eV
Initial charges:             Read in from 'charges'
Included shells:            Zn:  s, p, d
                             O:  s, p
                             C:  s, p
                             H:  s
K-points and weights:           1:  0.000000  0.000000  0.000000     1.000000

K-points in absolute space:     1:  0.000000  0.000000  0.000000

s-dftd3 library version:     0.7.0
-> damping function:         rational damping
Full 3rd order correction    Yes
Damped SCC                   Yes
Damped species(s):           H                                                 
Extra options:
                             Mulliken analysis
                             Force calculation
Force type                   original

--------------------------------------------------------------------------------

***  Geometry step: 0

 iSCC Total electronic   Diff electronic      SCC error    
    1    0.00000000E+00    0.00000000E+00    0.44124590E-01
    2   -0.10959615E+04   -0.10959615E+04    0.26830408E-01
    3   -0.10959631E+04   -0.15888881E-02    0.54766570E-02
    4   -0.10959638E+04   -0.71350273E-03    0.27204120E-02
    5   -0.10959638E+04   -0.29111800E-04    0.72761120E-03
    6   -0.10959638E+04   -0.22210722E-05    0.25045571E-03
    7   -0.10959638E+04   -0.71219347E-07    0.69930356E-04
>> Charges saved for restart in charges.bin

Total Energy:                    -1084.9500751582 H       -29522.9937 eV
Extrapolated to 0K:              -1084.9500751582 H       -29522.9937 eV
Total Mermin free energy:        -1084.9500751582 H       -29522.9937 eV
Force related energy:            -1084.9500751582 H       -29522.9937 eV

Volume:                              0.232254E+06 au^3   0.344165E+05 A^3
Pressure:                           -0.307563E-05 au    -0.904882E+08 Pa

--------------------------------------------------------------------------------
DFTB+ running times                          cpu [s]             wall clock [s]
--------------------------------------------------------------------------------
Pre-SCC initialisation                 +       2.02 (  4.0%)       0.22 (  2.0%)
SCC                                    +      45.17 ( 89.8%)      10.46 ( 93.8%)
Post-SCC processing                    +       3.08 (  6.1%)       0.46 (  4.1%)
--------------------------------------------------------------------------------
Missing                                +       0.01 (  0.0%)       0.01 (  0.0%)
Total                                  =      50.28 (100.0%)      11.15 (100.0%)
--------------------------------------------------------------------------------
