|===============================================================================
|
|  DFTB+ release 24.1
|
|  Copyright (C) 2006 - 2024  DFTB+ developers group
|
|===============================================================================
|
|  When publishing results obtained with DFTB+, please cite the following
|  reference:
|
|  * DFTB+, a software package for efficient approximate density functional
|    theory based atomistic simulations, J. Chem. Phys. 152, 124101 (2020).
|    [doi: 10.1063/1.5143190]
|
|  You should also cite additional publications crediting the parametrization
|  data you use. Please consult the documentation of the SK-files for the
|  references.
|
|===============================================================================

Reading input file 'dftb_in.hsd'
Parser version: 14

--------------------------------------------------------------------------------
***  Converting input from parser version  5 to parser version 14 ...
WARNING!
-> Keyword DampXH moved to HCorrection block
Path: dftbplusinput/Hamiltonian/DFTB/DampXH
Line: 17-17 (File: dftb_in.hsd)

WARNING!
-> Adding Damping to HCorrection
Path: dftbplusinput/Hamiltonian/DFTB/HCorrection

WARNING!
-> Keyword renamed to 'PrintForces'.
Path: dftbplusinput/Analysis/CalculateForces
Line: 66-66 (File: dftb_in.hsd)

***  Done.

Reading SK-files:
../slakos/3ob-3-1/C-C.skf
../slakos/3ob-3-1/C-H.skf
../slakos/3ob-3-1/C-N.skf
../slakos/3ob-3-1/H-H.skf
../slakos/3ob-3-1/H-N.skf
../slakos/3ob-3-1/N-N.skf
Done.


Processed input in HSD format written to 'dftb_pin.hsd'

Starting initialization...
--------------------------------------------------------------------------------
WARNING!
-> Dipole printed for extended system : value printed is not well defined
OpenMP threads:              1
Chosen random seed:          1293600343
Current stacksize:           unlimited
Mode:                        Static calculation
Self consistent charges:     Yes
SCC-tolerance:                 0.100000E-03
Max. scc iterations:                    250
Shell resolved Hubbard:      No
Spin polarisation:           No
Nr. of up electrons:           342.000000
Nr. of down electrons:         342.000000
Periodic boundaries:         Yes
Electronic solver:           Relatively robust
Mixer:                       Broyden mixer
Mixing parameter:                  0.200000
Maximal SCC-cycles:                     250
Nr. of chrg. vec. in memory:            250
Electronic temperature:              0.100000E-07 H      0.272114E-06 eV
Initial charges:             Read in from 'charges'
Included shells:             C:  s, p
                             H:  s
                             N:  s, p
K-points and weights:           1:  0.000000  0.000000  0.000000     1.000000

K-points in absolute space:     1:  0.000000  0.000000  0.000000

s-dftd3 library version:     1.0.0
-> damping function:         rational damping
Full 3rd order correction    Yes
Damped SCC                   Yes
Damped species(s):           H                                                 
Extra options:
                             Mulliken analysis
                             Force calculation
Force type                   original

--------------------------------------------------------------------------------

***  Geometry step: 0

 iSCC Total electronic   Diff electronic      SCC error    
    1    0.00000000E+00    0.00000000E+00    0.69063408E-02
    2   -0.30276039E+03   -0.30276039E+03    0.51344200E-02
    3   -0.30276042E+03   -0.32041140E-04    0.12766719E-02
    4   -0.30276044E+03   -0.14688565E-04    0.35896181E-03
    5   -0.30276044E+03   -0.26144171E-05    0.73622269E-04
>> Charges saved for restart in charges.bin

Total Energy:                     -296.6816436333 H        -8073.1183 eV
Extrapolated to 0K:               -296.6816436333 H        -8073.1183 eV
Total Mermin free energy:         -296.6816436333 H        -8073.1183 eV
Force related energy:             -296.6816436333 H        -8073.1183 eV

Volume:                              0.251627E+05 au^3   0.372873E+04 A^3
Pressure:                            0.592462E-04 au     0.174308E+10 Pa

--------------------------------------------------------------------------------
DFTB+ running times                          cpu [s]             wall clock [s]
--------------------------------------------------------------------------------
Pre-SCC initialisation                 +       0.44 ( 30.2%)       0.44 ( 30.1%)
SCC                                    +       0.64 ( 43.4%)       0.64 ( 43.4%)
Post-SCC processing                    +       0.39 ( 26.3%)       0.39 ( 26.3%)
--------------------------------------------------------------------------------
Missing                                +       0.00 (  0.1%)       0.00 (  0.1%)
Total                                  =       1.47 (100.0%)       1.48 (100.0%)
--------------------------------------------------------------------------------
