 Fermi distribution function

Calculation with static geometry


********************************************************************************
 iSCC Total electronic   Diff electronic      SCC error    
    5   -0.13462520E+02   -0.35225726E-07    0.83153516E-04
********************************************************************************

 Total charge:    -0.00000000

 Atomic gross charges (e)
 Atom           Charge
    1       0.27425099
    2       0.07587507
    3      -0.35436512
    4       0.09595895
    5       0.41223406
    6      -0.00656228
    7      -0.48552542
    8      -0.41215606
    9       0.40028980

Nr. of electrons (up):     28.00000000
Atom populations (up)
 Atom       Population
    1       3.72574901
    2       0.92412493
    3       4.35436512
    4       0.90404105
    5       3.58776594
    6       1.00656228
    7       6.48552542
    8       6.41215606
    9       0.59971020

l-shell populations (up)
 Atom Sh.   l       Population
    1   1   0       1.13044517
    1   2   1       2.59530384
    2   1   0       0.92412493
    3   1   0       1.21591730
    3   2   1       3.13844783
    4   1   0       0.90404105
    5   1   0       1.14085354
    5   2   1       2.44691240
    6   1   0       1.00656228
    7   1   0       1.75763584
    7   2   1       4.72788957
    8   1   0       1.73800848
    8   2   1       4.67414758
    9   1   0       0.59971020

Orbital populations (up)
 Atom Sh.   l   m       Population  Label
    1   1   0   0       1.13044517  s
    1   2   1  -1       0.84286034  p_y
    1   2   1   0       0.89475633  p_z
    1   2   1   1       0.85768717  p_x
    2   1   0   0       0.92412493  s
    3   1   0   0       1.21591730  s
    3   2   1  -1       0.99207938  p_y
    3   2   1   0       1.02035525  p_z
    3   2   1   1       1.12601320  p_x
    4   1   0   0       0.90404105  s
    5   1   0   0       1.14085354  s
    5   2   1  -1       0.79071026  p_y
    5   2   1   0       0.88215105  p_z
    5   2   1   1       0.77405109  p_x
    6   1   0   0       1.00656228  s
    7   1   0   0       1.75763584  s
    7   2   1  -1       1.49643390  p_y
    7   2   1   0       1.77423633  p_z
    7   2   1   1       1.45721934  p_x
    8   1   0   0       1.73800848  s
    8   2   1  -1       1.27949608  p_y
    8   2   1   0       1.67585368  p_z
    8   2   1   1       1.71879782  p_x
    9   1   0   0       0.59971020  s

Fermi level:                        -0.1600669597 H           -4.3556 eV
Band energy:                       -13.3007140581 H         -361.9308 eV
TS:                                  0.0000000000 H            0.0000 eV
Band free energy (E-TS):           -13.3007140581 H         -361.9308 eV
Extrapolated E(0K):                -13.3007140581 H         -361.9308 eV
Input / Output electrons (q):     28.0000000000     28.0000000000

Energy H0:                         -13.4818464663 H         -366.8597 eV
Energy SCC:                          0.0211913327 H            0.5766 eV
Energy 3rd:                         -0.0018650413 H           -0.0508 eV
Total Electronic energy:           -13.4625201749 H         -366.3338 eV
Repulsive energy:                    0.2376474966 H            6.4667 eV
Dispersion energy:                  -0.0037238830 H           -0.1013 eV
Total energy:                      -13.2285965613 H         -359.9684 eV
Extrapolated to 0:                 -13.2285965613 H         -359.9684 eV
Total Mermin free energy:          -13.2285965613 H         -359.9684 eV
Force related energy:              -13.2285965613 H         -359.9684 eV

SCC converged

Total Forces
    1      0.030228835002     -0.017283639284     -0.052037706517
    2      0.009244347651      0.046290682326     -0.033847592125
    3     -0.053341507078      0.032320649465      0.057628943040
    4      0.003886642066      0.001394752720      0.007324008987
    5     -0.017720737062      0.008056829691      0.040265592121
    6      0.006713919431     -0.011936907232     -0.016321741770
    7      0.004858111130     -0.020940195284     -0.002995336754
    8      0.003557438986     -0.036875194314      0.013048999283
    9      0.012572949875     -0.001026978088     -0.013065166266

Total stress tensor
      0.000000012035     -0.000000004597     -0.000000017795
     -0.000000004597      0.000000036200     -0.000000008124
     -0.000000017795     -0.000000008124      0.000000030157

Total lattice derivs
     -0.000429772121      0.000164174289      0.000635483302
      0.000164173859     -0.001292736454      0.000290106879
      0.000635483540      0.000290107483     -0.001076931358

Maximal derivative component:        0.576289E-01 au

Volume:                              0.674833E+07 au^3
Pressure:                            0.261308E-07 au     0.768794E+06 Pa

Warning: dipole moment is not defined absolutely!
Dipole moment:   -0.26463246    0.92632846   -0.15141156 au
Dipole moment:   -0.67262868    2.35449229   -0.38484984 Debye


