 Fermi distribution function

Calculation with static geometry


********************************************************************************
 iSCC Total electronic   Diff electronic      SCC error    
    6   -0.13223654E+02   -0.68317902E-08    0.64580298E-04
********************************************************************************

 Total charge:    -0.00000000

 Atomic gross charges (e)
 Atom           Charge
    1       0.23453859
    2       0.09671078
    3      -0.34598355
    4       0.11703754
    5       0.36911318
    6       0.05003149
    7      -0.48269558
    8      -0.43103877
    9       0.39228631

Nr. of electrons (up):     28.00000000
Atom populations (up)
 Atom       Population
    1       3.76546141
    2       0.90328922
    3       4.34598355
    4       0.88296246
    5       3.63088682
    6       0.94996851
    7       6.48269558
    8       6.43103877
    9       0.60771369

l-shell populations (up)
 Atom Sh.   l       Population
    1   1   0       1.23415476
    1   2   1       2.53130665
    2   1   0       0.90328922
    3   1   0       1.30917613
    3   2   1       3.03680742
    4   1   0       0.88296246
    5   1   0       1.22415647
    5   2   1       2.40673034
    6   1   0       0.94996851
    7   1   0       1.81154948
    7   2   1       4.67114611
    8   1   0       1.78297551
    8   2   1       4.64806326
    9   1   0       0.60771369

Orbital populations (up)
 Atom Sh.   l   m       Population  Label
    1   1   0   0       1.23415476  s
    1   2   1  -1       0.80703532  p_y
    1   2   1   0       0.87366294  p_z
    1   2   1   1       0.85060839  p_x
    2   1   0   0       0.90328922  s
    3   1   0   0       1.30917613  s
    3   2   1  -1       1.01932089  p_y
    3   2   1   0       0.97187717  p_z
    3   2   1   1       1.04560935  p_x
    4   1   0   0       0.88296246  s
    5   1   0   0       1.22415647  s
    5   2   1  -1       0.77520928  p_y
    5   2   1   0       0.88672846  p_z
    5   2   1   1       0.74479260  p_x
    6   1   0   0       0.94996851  s
    7   1   0   0       1.81154948  s
    7   2   1  -1       1.40647409  p_y
    7   2   1   0       1.86348679  p_z
    7   2   1   1       1.40118522  p_x
    8   1   0   0       1.78297551  s
    8   2   1  -1       1.22612191  p_y
    8   2   1   0       1.65702828  p_z
    8   2   1   1       1.76491308  p_x
    9   1   0   0       0.60771369  s

Fermi level:                        -0.1811626097 H           -4.9297 eV
Band energy:                       -12.8455058391 H         -349.5440 eV
TS:                                  0.0000000000 H            0.0000 eV
Band free energy (E-TS):           -12.8455058391 H         -349.5440 eV
Extrapolated E(0K):                -12.8455058391 H         -349.5440 eV
Input / Output electrons (q):     28.0000000000     28.0000000000

Energy H0:                         -13.2498746647 H         -360.5474 eV
Energy SCC:                          0.0287174183 H            0.7814 eV
Energy 3rd:                         -0.0024968850 H           -0.0679 eV
Total Electronic energy:           -13.2236541313 H         -359.8339 eV
Repulsive energy:                    0.0383589732 H            1.0438 eV
Dispersion energy:                  -0.0035970809 H           -0.0979 eV
Total energy:                      -13.1888922390 H         -358.8880 eV
Extrapolated to 0:                 -13.1888922390 H         -358.8880 eV
Total Mermin free energy:          -13.1888922390 H         -358.8880 eV
Force related energy:              -13.1888922390 H         -358.8880 eV

SCC converged

Total Forces
    1     -0.044306593938     -0.066794114758      0.056045806816
    2      0.000289136434      0.004248407167     -0.008146730249
    3      0.047506562923     -0.025718373507     -0.029542299980
    4      0.029574392634     -0.019722009117     -0.002663305458
    5      0.003316280106     -0.066578276917     -0.066988931684
    6      0.004416208364     -0.003502666003     -0.008536061476
    7     -0.014937376756      0.113759660658      0.024964213961
    8     -0.030721102477      0.045966464114      0.050682195022
    9      0.004862492710      0.018340908362     -0.015814886951

Total stress tensor
     -0.000000029785      0.000000024009      0.000000029283
      0.000000024009     -0.000000084226     -0.000000005477
      0.000000029283     -0.000000005477     -0.000000053605

Total lattice derivs
      0.001063640081     -0.000857392687     -0.001045717104
     -0.000857392597      0.003007758886      0.000195573306
     -0.001045716838      0.000195573109      0.001914263001

Maximal derivative component:        0.113760E+00 au

Volume:                              0.674833E+07 au^3
Pressure:                           -0.558719E-07 au    -0.164381E+07 Pa

Warning: dipole moment is not defined absolutely!
Dipole moment:   -0.15197270    1.19799426    0.09822484 au
Dipole moment:   -0.38627611    3.04499792    0.24966266 Debye


