 Fermi distribution function

Calculation with static geometry


********************************************************************************
 iSCC Total electronic   Diff electronic      SCC error    
   11   -0.13200827E+02   -0.67622832E-08    0.12865625E-04
********************************************************************************

 Total charge:    -0.00000000

 Atomic gross charges (e)
 Atom           Charge
    1       0.23133863
    2       0.10428284
    3      -0.33465119
    4       0.12549615
    5       0.33071312
    6       0.07828995
    7      -0.53423394
    8      -0.40619885
    9       0.40496329

Nr. of electrons (up):     28.00000000
Atom populations (up)
 Atom       Population
    1       3.76866137
    2       0.89571716
    3       4.33465119
    4       0.87450385
    5       3.66928688
    6       0.92171005
    7       6.53423394
    8       6.40619885
    9       0.59503671

l-shell populations (up)
 Atom Sh.   l       Population
    1   1   0       1.24638804
    1   2   1       2.52227332
    2   1   0       0.89571716
    3   1   0       1.29976551
    3   2   1       3.03488567
    4   1   0       0.87450385
    5   1   0       1.24319057
    5   2   1       2.42609631
    6   1   0       0.92171005
    7   1   0       1.85662501
    7   2   1       4.67760893
    8   1   0       1.76240110
    8   2   1       4.64379775
    9   1   0       0.59503671

Orbital populations (up)
 Atom Sh.   l   m       Population  Label
    1   1   0   0       1.24638804  s
    1   2   1  -1       0.80614506  p_y
    1   2   1   0       0.86218150  p_z
    1   2   1   1       0.85394676  p_x
    2   1   0   0       0.89571716  s
    3   1   0   0       1.29976551  s
    3   2   1  -1       1.03844258  p_y
    3   2   1   0       0.95922081  p_z
    3   2   1   1       1.03722229  p_x
    4   1   0   0       0.87450385  s
    5   1   0   0       1.24319057  s
    5   2   1  -1       0.77148118  p_y
    5   2   1   0       0.89625496  p_z
    5   2   1   1       0.75836017  p_x
    6   1   0   0       0.92171005  s
    7   1   0   0       1.85662501  s
    7   2   1  -1       1.35153060  p_y
    7   2   1   0       1.90205154  p_z
    7   2   1   1       1.42402679  p_x
    8   1   0   0       1.76240110  s
    8   2   1  -1       1.21264309  p_y
    8   2   1   0       1.68141558  p_z
    8   2   1   1       1.74973908  p_x
    9   1   0   0       0.59503671  s

Fermi level:                        -0.1833457591 H           -4.9891 eV
Band energy:                       -12.7906875897 H         -348.0523 eV
TS:                                  0.0000000000 H            0.0000 eV
Band free energy (E-TS):           -12.7906875897 H         -348.0523 eV
Extrapolated E(0K):                -12.7906875897 H         -348.0523 eV
Input / Output electrons (q):     28.0000000000     28.0000000000

Energy H0:                         -13.2327647779 H         -360.0819 eV
Energy SCC:                          0.0350923300 H            0.9549 eV
Energy 3rd:                         -0.0031541566 H           -0.0858 eV
Total Electronic energy:           -13.2008266046 H         -359.2128 eV
Repulsive energy:                    0.0483147176 H            1.3147 eV
Dispersion energy:                  -0.0036019347 H           -0.0980 eV
Total energy:                      -13.1561138217 H         -357.9961 eV
Extrapolated to 0:                 -13.1561138217 H         -357.9961 eV
Total Mermin free energy:          -13.1561138217 H         -357.9961 eV
Force related energy:              -13.1561138217 H         -357.9961 eV

SCC converged

Total Forces
    1     -0.054239374276     -0.080191785914      0.077877419892
    2      0.003645125138      0.006073410793     -0.014474063771
    3      0.076571782062     -0.053472784411     -0.045889878862
    4      0.004660891749      0.012887237133      0.006260347570
    5      0.022585531879     -0.098498993027     -0.103960696372
    6     -0.005128860068      0.002056347226      0.015060260548
    7     -0.022205757752      0.138013503907      0.033999994934
    8     -0.015460651315      0.091433627999      0.008815614677
    9     -0.010428687417     -0.018300563708      0.022311001384

Total stress tensor
     -0.000000025771      0.000000023407      0.000000026598
      0.000000023407     -0.000000082113     -0.000000013422
      0.000000026598     -0.000000013422     -0.000000045764

Total lattice derivs
      0.000920308546     -0.000835891445     -0.000949847248
     -0.000835891453      0.002932303515      0.000479319527
     -0.000949847324      0.000479319582      0.001634272182

Maximal derivative component:        0.138014E+00 au

Volume:                              0.674833E+07 au^3
Pressure:                           -0.512161E-07 au    -0.150683E+07 Pa

Warning: dipole moment is not defined absolutely!
Dipole moment:   -0.10358742    1.46492747   -0.11880918 au
Dipole moment:   -0.26329299    3.72347452   -0.30198283 Debye


