 Fermi distribution function

Calculation with static geometry


********************************************************************************
 iSCC Total electronic   Diff electronic      SCC error    
   11   -0.13201890E+02   -0.99972031E-08    0.96722947E-05
********************************************************************************

 Total charge:    -0.00000000

 Atomic gross charges (e)
 Atom           Charge
    1       0.23255174
    2       0.10357698
    3      -0.33611509
    4       0.12689531
    5       0.32892132
    6       0.07939804
    7      -0.53391009
    8      -0.40648250
    9       0.40516428

Nr. of electrons (up):     28.00000000
Atom populations (up)
 Atom       Population
    1       3.76744826
    2       0.89642302
    3       4.33611509
    4       0.87310469
    5       3.67107868
    6       0.92060196
    7       6.53391009
    8       6.40648250
    9       0.59483572

l-shell populations (up)
 Atom Sh.   l       Population
    1   1   0       1.24580913
    1   2   1       2.52163913
    2   1   0       0.89642302
    3   1   0       1.29830294
    3   2   1       3.03781215
    4   1   0       0.87310469
    5   1   0       1.24435541
    5   2   1       2.42672328
    6   1   0       0.92060196
    7   1   0       1.85714434
    7   2   1       4.67676575
    8   1   0       1.76185469
    8   2   1       4.64462781
    9   1   0       0.59483572

Orbital populations (up)
 Atom Sh.   l   m       Population  Label
    1   1   0   0       1.24580913  s
    1   2   1  -1       0.80550475  p_y
    1   2   1   0       0.86205895  p_z
    1   2   1   1       0.85407543  p_x
    2   1   0   0       0.89642302  s
    3   1   0   0       1.29830294  s
    3   2   1  -1       1.04076394  p_y
    3   2   1   0       0.95879484  p_z
    3   2   1   1       1.03825337  p_x
    4   1   0   0       0.87310469  s
    5   1   0   0       1.24435541  s
    5   2   1  -1       0.77196574  p_y
    5   2   1   0       0.89674543  p_z
    5   2   1   1       0.75801210  p_x
    6   1   0   0       0.92060196  s
    7   1   0   0       1.85714434  s
    7   2   1  -1       1.35177795  p_y
    7   2   1   0       1.90165755  p_z
    7   2   1   1       1.42333024  p_x
    8   1   0   0       1.76185469  s
    8   2   1  -1       1.21196852  p_y
    8   2   1   0       1.68145930  p_z
    8   2   1   1       1.75119999  p_x
    9   1   0   0       0.59483572  s

Fermi level:                        -0.1831771897 H           -4.9845 eV
Band energy:                       -12.7898363463 H         -348.0292 eV
TS:                                  0.0000000000 H            0.0000 eV
Band free energy (E-TS):           -12.7898363463 H         -348.0292 eV
Extrapolated E(0K):                -12.7898363463 H         -348.0292 eV
Input / Output electrons (q):     28.0000000000     28.0000000000

Energy H0:                         -13.2338498324 H         -360.1114 eV
Energy SCC:                          0.0351112950 H            0.9554 eV
Energy 3rd:                         -0.0031514527 H           -0.0858 eV
Total Electronic energy:           -13.2018899902 H         -359.2417 eV
Repulsive energy:                    0.0502946024 H            1.3686 eV
Dispersion energy:                  -0.0036032264 H           -0.0980 eV
Total energy:                      -13.1551986142 H         -357.9712 eV
Extrapolated to 0:                 -13.1551986142 H         -357.9712 eV
Total Mermin free energy:          -13.1551986142 H         -357.9712 eV
Force related energy:              -13.1551986142 H         -357.9712 eV

SCC converged

Total Forces
    1     -0.054035336268     -0.077392474598      0.077118094988
    2      0.003482614476      0.003605587863     -0.014031093155
    3      0.080341061146     -0.059396262045     -0.044519493506
    4      0.000754042961      0.018166623373      0.006176668482
    5      0.022822638511     -0.099059009742     -0.107095770370
    6     -0.005255508344      0.002225025905      0.016580913835
    7     -0.022187655278      0.138072385161      0.034889808060
    8     -0.014833880352      0.093003708445      0.007531149985
    9     -0.011087976851     -0.019225584362      0.023349721680

Total stress tensor
     -0.000000024968      0.000000022621      0.000000026386
      0.000000022621     -0.000000081577     -0.000000013559
      0.000000026386     -0.000000013559     -0.000000045374

Total lattice derivs
      0.000891606836     -0.000807798538     -0.000942268942
     -0.000807798562      0.002913167413      0.000484186644
     -0.000942269009      0.000484186687      0.001620330776

Maximal derivative component:        0.138072E+00 au

Volume:                              0.674833E+07 au^3
Pressure:                           -0.506395E-07 au    -0.148986E+07 Pa

Warning: dipole moment is not defined absolutely!
Dipole moment:   -0.09927707    1.46465199   -0.11042129 au
Dipole moment:   -0.25233717    3.72277434   -0.28066294 Debye


