 Fermi distribution function

Calculation with static geometry


********************************************************************************
 iSCC Total electronic   Diff electronic      SCC error    
    5   -0.13369150E+02   -0.20093003E-07    0.47664730E-04
********************************************************************************

 Total charge:    -0.00000000

 Atomic gross charges (e)
 Atom           Charge
    1       0.26596757
    2       0.09208349
    3      -0.44977740
    4       0.11955173
    5       0.39737778
    6       0.04438464
    7      -0.52379926
    8      -0.34554153
    9       0.39975298

Nr. of electrons (up):     28.00000000
Atom populations (up)
 Atom       Population
    1       3.73403243
    2       0.90791651
    3       4.44977740
    4       0.88044827
    5       3.60262222
    6       0.95561536
    7       6.52379926
    8       6.34554153
    9       0.60024702

l-shell populations (up)
 Atom Sh.   l       Population
    1   1   0       1.15398487
    1   2   1       2.58004757
    2   1   0       0.90791651
    3   1   0       1.29701461
    3   2   1       3.15276279
    4   1   0       0.88044827
    5   1   0       1.20145306
    5   2   1       2.40116915
    6   1   0       0.95561536
    7   1   0       1.78683656
    7   2   1       4.73696271
    8   1   0       1.71848270
    8   2   1       4.62705883
    9   1   0       0.60024702

Orbital populations (up)
 Atom Sh.   l   m       Population  Label
    1   1   0   0       1.15398487  s
    1   2   1  -1       0.84746835  p_y
    1   2   1   0       0.91352235  p_z
    1   2   1   1       0.81905686  p_x
    2   1   0   0       0.90791651  s
    3   1   0   0       1.29701461  s
    3   2   1  -1       0.96372061  p_y
    3   2   1   0       0.97319726  p_z
    3   2   1   1       1.21584491  p_x
    4   1   0   0       0.88044827  s
    5   1   0   0       1.20145306  s
    5   2   1  -1       0.79304878  p_y
    5   2   1   0       0.85922413  p_z
    5   2   1   1       0.74889625  p_x
    6   1   0   0       0.95561536  s
    7   1   0   0       1.78683656  s
    7   2   1  -1       1.48509631  p_y
    7   2   1   0       1.83168751  p_z
    7   2   1   1       1.42017889  p_x
    8   1   0   0       1.71848270  s
    8   2   1  -1       1.24379325  p_y
    8   2   1   0       1.69904477  p_z
    8   2   1   1       1.68422081  p_x
    9   1   0   0       0.60024702  s

Fermi level:                        -0.1588285589 H           -4.3219 eV
Band energy:                       -13.0463942171 H         -355.0104 eV
TS:                                  0.0000000000 H            0.0000 eV
Band free energy (E-TS):           -13.0463942171 H         -355.0104 eV
Extrapolated E(0K):                -13.0463942171 H         -355.0104 eV
Input / Output electrons (q):     28.0000000000     28.0000000000

Energy H0:                         -13.3947059016 H         -364.4885 eV
Energy SCC:                          0.0280377730 H            0.7629 eV
Energy 3rd:                         -0.0024815435 H           -0.0675 eV
Total Electronic energy:           -13.3691496721 H         -363.7931 eV
Repulsive energy:                    0.1696678840 H            4.6169 eV
Dispersion energy:                  -0.0036572852 H           -0.0995 eV
Total energy:                      -13.2031390733 H         -359.2757 eV
Extrapolated to 0:                 -13.2031390733 H         -359.2757 eV
Total Mermin free energy:          -13.2031390733 H         -359.2757 eV
Force related energy:              -13.2031390733 H         -359.2757 eV

SCC converged

Total Forces
    1     -0.073051734158     -0.045052223078      0.121218426774
    2      0.021430837060      0.080195805471     -0.060895901512
    3      0.050168269168     -0.070171142782     -0.019822084869
    4     -0.014377277551      0.032073173546      0.017592391494
    5      0.025482279263     -0.034425260873     -0.052328940913
    6     -0.002157144879      0.015424587008     -0.010520236427
    7     -0.016660155100      0.049576159290      0.010994719533
    8      0.008891992638     -0.027686351697     -0.013744342937
    9      0.000272933558      0.000065253115      0.007505968857

Total stress tensor
     -0.000000009887      0.000000003126      0.000000012374
      0.000000003126      0.000000010871      0.000000001356
      0.000000012374      0.000000001356     -0.000000026941

Total lattice derivs
      0.000353073660     -0.000111645524     -0.000441891498
     -0.000111644798     -0.000388223883     -0.000048427493
     -0.000441891748     -0.000048426518      0.000962076759

Maximal derivative component:        0.121218E+00 au

Volume:                              0.674833E+07 au^3
Pressure:                           -0.865220E-08 au    -0.254556E+06 Pa

Warning: dipole moment is not defined absolutely!
Dipole moment:    0.09039580    0.88906837  -48.16107463 au
Dipole moment:    0.22976322    2.25978658 -122.41325130 Debye


