 Fermi distribution function

Calculation with static geometry


********************************************************************************
 iSCC Total electronic   Diff electronic      SCC error    
   11   -0.13197642E+02   -0.71111952E-08    0.86291594E-05
********************************************************************************

 Total charge:    -0.00000000

 Atomic gross charges (e)
 Atom           Charge
    1       0.23396008
    2       0.10388615
    3      -0.33671808
    4       0.12546531
    5       0.33042948
    6       0.07841587
    7      -0.53424174
    8      -0.40632153
    9       0.40512447

Nr. of electrons (up):     28.00000000
Atom populations (up)
 Atom       Population
    1       3.76603992
    2       0.89611385
    3       4.33671808
    4       0.87453469
    5       3.66957052
    6       0.92158413
    7       6.53424174
    8       6.40632153
    9       0.59487553

l-shell populations (up)
 Atom Sh.   l       Population
    1   1   0       1.24495847
    1   2   1       2.52108145
    2   1   0       0.89611385
    3   1   0       1.30032512
    3   2   1       3.03639296
    4   1   0       0.87453469
    5   1   0       1.24489254
    5   2   1       2.42467799
    6   1   0       0.92158413
    7   1   0       1.85681207
    7   2   1       4.67742967
    8   1   0       1.76326350
    8   2   1       4.64305803
    9   1   0       0.59487553

Orbital populations (up)
 Atom Sh.   l   m       Population  Label
    1   1   0   0       1.24495847  s
    1   2   1  -1       0.80516473  p_y
    1   2   1   0       0.86201940  p_z
    1   2   1   1       0.85389733  p_x
    2   1   0   0       0.89611385  s
    3   1   0   0       1.30032512  s
    3   2   1  -1       1.03917899  p_y
    3   2   1   0       0.95956891  p_z
    3   2   1   1       1.03764506  p_x
    4   1   0   0       0.87453469  s
    5   1   0   0       1.24489254  s
    5   2   1  -1       0.77148196  p_y
    5   2   1   0       0.89587256  p_z
    5   2   1   1       0.75732347  p_x
    6   1   0   0       0.92158413  s
    7   1   0   0       1.85681207  s
    7   2   1  -1       1.35199852  p_y
    7   2   1   0       1.90112094  p_z
    7   2   1   1       1.42431021  p_x
    8   1   0   0       1.76326350  s
    8   2   1  -1       1.21111352  p_y
    8   2   1   0       1.68126469  p_z
    8   2   1   1       1.75067982  p_x
    9   1   0   0       0.59487553  s

Fermi level:                        -0.1831254873 H           -4.9831 eV
Band energy:                       -12.7824391373 H         -347.8279 eV
TS:                                  0.0000000000 H            0.0000 eV
Band free energy (E-TS):           -12.7824391373 H         -347.8279 eV
Extrapolated E(0K):                -12.7824391373 H         -347.8279 eV
Input / Output electrons (q):     28.0000000000     28.0000000000

Energy H0:                         -13.2296594356 H         -359.9973 eV
Energy SCC:                          0.0351704374 H            0.9570 eV
Energy 3rd:                         -0.0031529916 H           -0.0858 eV
Total Electronic energy:           -13.1976419898 H         -359.1261 eV
Repulsive energy:                    0.0451989163 H            1.2299 eV
Dispersion energy:                  -0.0036008482 H           -0.0980 eV
Total energy:                      -13.1560439216 H         -357.9942 eV
Extrapolated to 0:                 -13.1560439216 H         -357.9942 eV
Total Mermin free energy:          -13.1560439216 H         -357.9942 eV
Force related energy:              -13.1560439216 H         -357.9942 eV

SCC converged

Total Forces
    1     -0.055093754760     -0.078721106948      0.078532733413
    2      0.003899754232      0.004181593544     -0.014449918190
    3      0.075983979563     -0.054470967141     -0.043681238827
    4      0.004797537777      0.013404702872      0.005580260374
    5      0.022892362489     -0.098279061106     -0.104562802759
    6     -0.004969939271      0.001891841327      0.014188825208
    7     -0.022221897709      0.138090594120      0.034137053534
    8     -0.016391732333      0.086383112829      0.011858567815
    9     -0.008896309988     -0.012480709497      0.018396519432

Total stress tensor
     -0.000000025805      0.000000022896      0.000000026901
      0.000000022896     -0.000000083955     -0.000000012273
      0.000000026901     -0.000000012273     -0.000000046963

Total lattice derivs
      0.000921528395     -0.000817617686     -0.000960639997
     -0.000817617723      0.002998087603      0.000438273142
     -0.000960640059      0.000438273199      0.001677066150

Maximal derivative component:        0.138091E+00 au

Volume:                              0.674833E+07 au^3
Pressure:                           -0.522410E-07 au    -0.153698E+07 Pa

Warning: dipole moment is not defined absolutely!
Dipole moment:   -0.09928232    1.45812251   -0.11732114 au
Dipole moment:   -0.25235051    3.70617805   -0.29820062 Debye


