 Fermi distribution function

Calculation with static geometry


********************************************************************************
 iSCC Total electronic   Diff electronic      SCC error    
   11   -0.13202986E+02   -0.89282519E-08    0.93622568E-05
********************************************************************************

 Total charge:    -0.00000000

 Atomic gross charges (e)
 Atom           Charge
    1       0.23210906
    2       0.10446099
    3      -0.33644838
    4       0.12707519
    5       0.32949176
    6       0.07884211
    7      -0.53420913
    8      -0.40636830
    9       0.40504669

Nr. of electrons (up):     28.00000000
Atom populations (up)
 Atom       Population
    1       3.76789094
    2       0.89553901
    3       4.33644838
    4       0.87292481
    5       3.67050824
    6       0.92115789
    7       6.53420913
    8       6.40636830
    9       0.59495331

l-shell populations (up)
 Atom Sh.   l       Population
    1   1   0       1.24463316
    1   2   1       2.52325778
    2   1   0       0.89553901
    3   1   0       1.29788682
    3   2   1       3.03856156
    4   1   0       0.87292481
    5   1   0       1.24413236
    5   2   1       2.42637588
    6   1   0       0.92115789
    7   1   0       1.85689166
    7   2   1       4.67731747
    8   1   0       1.76228228
    8   2   1       4.64408602
    9   1   0       0.59495331

Orbital populations (up)
 Atom Sh.   l   m       Population  Label
    1   1   0   0       1.24463316  s
    1   2   1  -1       0.80623410  p_y
    1   2   1   0       0.86293097  p_z
    1   2   1   1       0.85409271  p_x
    2   1   0   0       0.89553901  s
    3   1   0   0       1.29788682  s
    3   2   1  -1       1.04047281  p_y
    3   2   1   0       0.96056877  p_z
    3   2   1   1       1.03751997  p_x
    4   1   0   0       0.87292481  s
    5   1   0   0       1.24413236  s
    5   2   1  -1       0.77189990  p_y
    5   2   1   0       0.89667547  p_z
    5   2   1   1       0.75780051  p_x
    6   1   0   0       0.92115789  s
    7   1   0   0       1.85689166  s
    7   2   1  -1       1.35157953  p_y
    7   2   1   0       1.90255858  p_z
    7   2   1   1       1.42317936  p_x
    8   1   0   0       1.76228228  s
    8   2   1  -1       1.21104149  p_y
    8   2   1   0       1.68225546  p_z
    8   2   1   1       1.75078906  p_x
    9   1   0   0       0.59495331  s

Fermi level:                        -0.1831738615 H           -4.9844 eV
Band energy:                       -12.7908013519 H         -348.0554 eV
TS:                                  0.0000000000 H            0.0000 eV
Band free energy (E-TS):           -12.7908013519 H         -348.0554 eV
Extrapolated E(0K):                -12.7908013519 H         -348.0554 eV
Input / Output electrons (q):     28.0000000000     28.0000000000

Energy H0:                         -13.2349877002 H         -360.1423 eV
Energy SCC:                          0.0351549858 H            0.9566 eV
Energy 3rd:                         -0.0031532661 H           -0.0858 eV
Total Electronic energy:           -13.2029859805 H         -359.2715 eV
Repulsive energy:                    0.0510381747 H            1.3888 eV
Dispersion energy:                  -0.0036035760 H           -0.0981 eV
Total energy:                      -13.1555513817 H         -357.9808 eV
Extrapolated to 0:                 -13.1555513817 H         -357.9808 eV
Total Mermin free energy:          -13.1555513817 H         -357.9808 eV
Force related energy:              -13.1555513817 H         -357.9808 eV

SCC converged

Total Forces
    1     -0.055720854930     -0.081135806872      0.079003871709
    2      0.004521668259      0.007260418057     -0.015902906357
    3      0.081178599242     -0.060004520700     -0.044972148656
    4      0.000058738480      0.018878866657      0.006381857661
    5      0.023203582389     -0.099172412850     -0.105090563740
    6     -0.005305873969      0.002443436993      0.015731065265
    7     -0.022394802771      0.138099295946      0.033923983887
    8     -0.015300719500      0.090630183971      0.009221514851
    9     -0.010240337199     -0.016999461201      0.021703325381

Total stress tensor
     -0.000000024876      0.000000022462      0.000000026413
      0.000000022462     -0.000000080920     -0.000000013410
      0.000000026413     -0.000000013410     -0.000000045395

Total lattice derivs
      0.000888334242     -0.000802136572     -0.000943234390
     -0.000802136604      0.002889717435      0.000478861951
     -0.000943234457      0.000478862013      0.001621083407

Maximal derivative component:        0.138099E+00 au

Volume:                              0.674833E+07 au^3
Pressure:                           -0.503971E-07 au    -0.148273E+07 Pa

Warning: dipole moment is not defined absolutely!
Dipole moment:   -0.10304231    1.46302453   -0.11858495 au
Dipole moment:   -0.26190745    3.71863774   -0.30141289 Debye


