|===============================================================================
|
|  DFTB+ release 23.1
|
|  Copyright (C) 2006 - 2023  DFTB+ developers group
|
|===============================================================================
|
|  When publishing results obtained with DFTB+, please cite the following
|  reference:
|
|  * DFTB+, a software package for efficient approximate density functional
|    theory based atomistic simulations, J. Chem. Phys. 152, 124101 (2020).
|    [doi: 10.1063/1.5143190]
|
|  You should also cite additional publications crediting the parametrization
|  data you use. Please consult the documentation of the SK-files for the
|  references.
|
|===============================================================================

Reading input file 'dftb_in.hsd'
Parser version: 13

--------------------------------------------------------------------------------
***  Converting input from parser version  5 to parser version 13 ...
WARNING!
-> Keyword DampXH moved to HCorrection block
Path: dftbplusinput/Hamiltonian/DFTB/DampXH
Line: 25-25 (File: dftb_in.hsd)

WARNING!
-> Adding Damping to HCorrection
Path: dftbplusinput/Hamiltonian/DFTB/HCorrection

***  Done.

Reading SK-files:
/home/jag/skf_files/3ob-3-1/C-C.skf
/home/jag/skf_files/3ob-3-1/C-H.skf
/home/jag/skf_files/3ob-3-1/C-O.skf
/home/jag/skf_files/3ob-3-1/H-H.skf
/home/jag/skf_files/3ob-3-1/H-O.skf
/home/jag/skf_files/3ob-3-1/O-O.skf
Done.


Processed input in HSD format written to 'dftb_pin.hsd'

Starting initialization...
--------------------------------------------------------------------------------
WARNING!
-> Dipole printed for extended system : value printed is not well defined
Chosen random seed:          767537852
Current stacksize:           8 [Mb] (recommended: unlimited)
WARNING!
-> Current stacksize not set to unlimited or hard limit, which might cause
   random crashes (e.g. segmentation faults). It is advised to unlimit the
   stacksize by issuing 'ulimit -s unlimited' (Linux) or setting it to the 
   hard limit by 'ulimit -s hard' (Mac) in advance.
Mode:                        Static calculation
Self consistent charges:     Yes
SCC-tolerance:                 0.100000E-03
Max. scc iterations:                    250
Shell resolved Hubbard:      No
Spin polarisation:           No
Nr. of up electrons:            14.000000
Nr. of down electrons:          14.000000
Periodic boundaries:         Yes
Electronic solver:           Relatively robust
Mixer:                       Broyden mixer
Mixing parameter:                  0.200000
Maximal SCC-cycles:                     250
Nr. of chrg. vec. in memory:            250
Electronic temperature:              0.100000E-07 H      0.272114E-06 eV
Initial charges:             Set automatically (system chrg:   0.000E+00)
Included shells:             C:  s, p
                             H:  s
                             O:  s, p
K-points and weights:           1:  0.000000  0.000000  0.000000     1.000000

K-points in absolute space:     1:  0.000000  0.000000  0.000000

s-dftd3 library version:     0.7.0
-> damping function:         rational damping
Full 3rd order correction    Yes
Damped SCC                   Yes
Damped species(s):           H                                                 
Extra options:
                             Mulliken analysis
                             Force calculation
Force type                   original

--------------------------------------------------------------------------------

***  Geometry step: 0

 iSCC Total electronic   Diff electronic      SCC error    
    1    0.00000000E+00    0.00000000E+00    0.10411799E+01
    2   -0.13146409E+02   -0.13146409E+02    0.62903038E+00
    3   -0.13184670E+02   -0.38260501E-01    0.15800488E+00
    4   -0.13200039E+02   -0.15369089E-01    0.11498698E+00
    5   -0.13202829E+02   -0.27902055E-02    0.25912502E-01
    6   -0.13202940E+02   -0.11084765E-03    0.14857543E-01
    7   -0.13202970E+02   -0.30000382E-04    0.42696320E-02
    8   -0.13202985E+02   -0.15393663E-04    0.17432741E-02
    9   -0.13202986E+02   -0.58191637E-06    0.56222368E-03
   10   -0.13202986E+02   -0.98843302E-07    0.11080689E-03
   11   -0.13202986E+02   -0.89282519E-08    0.93622568E-05
>> Charges saved for restart in charges.bin

Total Energy:                      -13.1555513817 H         -357.9808 eV
Extrapolated to 0K:                -13.1555513817 H         -357.9808 eV
Total Mermin free energy:          -13.1555513817 H         -357.9808 eV
Force related energy:              -13.1555513817 H         -357.9808 eV

Volume:                              0.674833E+07 au^3   0.100000E+07 A^3
Pressure:                           -0.503971E-07 au    -0.148273E+07 Pa

--------------------------------------------------------------------------------
DFTB+ running times                          cpu [s]             wall clock [s]
--------------------------------------------------------------------------------
Global initialisation                  +       0.00 (  4.7%)       0.01 ( 20.4%)
SCC                                    +       0.05 ( 82.2%)       0.04 ( 71.4%)
--------------------------------------------------------------------------------
Missing                                +       0.01 ( 13.1%)       0.00 (  8.2%)
Total                                  =       0.06 (100.0%)       0.05 (100.0%)
--------------------------------------------------------------------------------
