|===============================================================================
|
|  DFTB+ release 23.1
|
|  Copyright (C) 2006 - 2023  DFTB+ developers group
|
|===============================================================================
|
|  When publishing results obtained with DFTB+, please cite the following
|  reference:
|
|  * DFTB+, a software package for efficient approximate density functional
|    theory based atomistic simulations, J. Chem. Phys. 152, 124101 (2020).
|    [doi: 10.1063/1.5143190]
|
|  You should also cite additional publications crediting the parametrization
|  data you use. Please consult the documentation of the SK-files for the
|  references.
|
|===============================================================================

Reading input file 'dftb_in.hsd'
Parser version: 13

--------------------------------------------------------------------------------
***  Converting input from parser version  5 to parser version 13 ...
WARNING!
-> Keyword DampXH moved to HCorrection block
Path: dftbplusinput/Hamiltonian/DFTB/DampXH
Line: 25-25 (File: dftb_in.hsd)

WARNING!
-> Adding Damping to HCorrection
Path: dftbplusinput/Hamiltonian/DFTB/HCorrection

***  Done.

Reading SK-files:
/home/jag/skf_files/3ob-3-1/C-C.skf
/home/jag/skf_files/3ob-3-1/C-H.skf
/home/jag/skf_files/3ob-3-1/C-O.skf
/home/jag/skf_files/3ob-3-1/H-H.skf
/home/jag/skf_files/3ob-3-1/H-O.skf
/home/jag/skf_files/3ob-3-1/O-O.skf
Done.


Processed input in HSD format written to 'dftb_pin.hsd'

Starting initialization...
--------------------------------------------------------------------------------
WARNING!
-> Dipole printed for extended system : value printed is not well defined
Chosen random seed:          741425736
Current stacksize:           8 [Mb] (recommended: unlimited)
WARNING!
-> Current stacksize not set to unlimited or hard limit, which might cause
   random crashes (e.g. segmentation faults). It is advised to unlimit the
   stacksize by issuing 'ulimit -s unlimited' (Linux) or setting it to the 
   hard limit by 'ulimit -s hard' (Mac) in advance.
Mode:                        Static calculation
Self consistent charges:     Yes
SCC-tolerance:                 0.100000E-03
Max. scc iterations:                    250
Shell resolved Hubbard:      No
Spin polarisation:           No
Nr. of up electrons:            14.000000
Nr. of down electrons:          14.000000
Periodic boundaries:         Yes
Electronic solver:           Relatively robust
Mixer:                       Broyden mixer
Mixing parameter:                  0.200000
Maximal SCC-cycles:                     250
Nr. of chrg. vec. in memory:            250
Electronic temperature:              0.100000E-07 H      0.272114E-06 eV
Initial charges:             Set automatically (system chrg:   0.000E+00)
Included shells:             C:  s, p
                             H:  s
                             O:  s, p
K-points and weights:           1:  0.000000  0.000000  0.000000     1.000000

K-points in absolute space:     1:  0.000000  0.000000  0.000000

s-dftd3 library version:     0.7.0
-> damping function:         rational damping
Full 3rd order correction    Yes
Damped SCC                   Yes
Damped species(s):           H                                                 
Extra options:
                             Mulliken analysis
                             Force calculation
Force type                   original

--------------------------------------------------------------------------------

***  Geometry step: 0

 iSCC Total electronic   Diff electronic      SCC error    
    1    0.00000000E+00    0.00000000E+00    0.10404395E+01
    2   -0.13144320E+02   -0.13144320E+02    0.62876345E+00
    3   -0.13182545E+02   -0.38224344E-01    0.15793220E+00
    4   -0.13197880E+02   -0.15335829E-01    0.11493835E+00
    5   -0.13200672E+02   -0.27912786E-02    0.26409964E-01
    6   -0.13200779E+02   -0.10739522E-03    0.15200018E-01
    7   -0.13200810E+02   -0.30896985E-04    0.38837241E-02
    8   -0.13200826E+02   -0.16099105E-04    0.16912581E-02
    9   -0.13200827E+02   -0.47201986E-06    0.49383952E-03
   10   -0.13200827E+02   -0.96083353E-07    0.11029355E-03
   11   -0.13200827E+02   -0.67622832E-08    0.12865625E-04
>> Charges saved for restart in charges.bin

Total Energy:                      -13.1561138217 H         -357.9961 eV
Extrapolated to 0K:                -13.1561138217 H         -357.9961 eV
Total Mermin free energy:          -13.1561138217 H         -357.9961 eV
Force related energy:              -13.1561138217 H         -357.9961 eV

Volume:                              0.674833E+07 au^3   0.100000E+07 A^3
Pressure:                           -0.512161E-07 au    -0.150683E+07 Pa

--------------------------------------------------------------------------------
DFTB+ running times                          cpu [s]             wall clock [s]
--------------------------------------------------------------------------------
SCC                                    +       0.04 ( 87.3%)       0.03 ( 90.0%)
--------------------------------------------------------------------------------
Missing                                +       0.01 ( 12.7%)       0.00 ( 10.0%)
Total                                  =       0.05 (100.0%)       0.03 (100.0%)
--------------------------------------------------------------------------------
